<?xml version="1.0"?>
<VTKFile type="UnstructuredGrid"  version="0.1"  >
<UnstructuredGrid>
<Piece  NumberOfPoints="2152" NumberOfCells="6133">
<Points>
<DataArray  type="Float64"  NumberOfComponents="3"  format="ascii">4 0.5 0  2 0.5 0  2 1 0  0 1 0  0 0 0  2 0 0  4 0 0  1 1 0  1 0 0  3 0.5 0  3 0 0  0.5 0 0  0.5 1 0  0 0.5 0  0.75 0.5 0  1.5 0 0  1.5 1 0  2.5 0 0  2.5 0.5 0  3.5 0 0  3.5 0.5 0  1.291666666666667 0.5 0  0.375 0.375 0  1.645833333333333 0.3541666666666668 0  2.75 0.5 0  2.75 0 0  2.25 0.5 0  2.25 0 0  1.707465277777778 0.7074652777777779 0  0.28125 0.71875 0  3.25 0 0  3.25 0.5 0  4 0.25 0  3.75 0.5 0  3.75 0 0  1.020833333333333 0.6770833333333334 0  0.75 1 0  1.020833333333333 0.3229166666666666 0  0.75 0 0  1.25 1 0  1.25 0 0  3.375 0.25 0  0.625 0.75 0  2.125 0.25 0  2.625 0.25 0  1.395833333333333 0.25 0  1.434656179076067 0.7338238142738609 0  0.625 0.25 0  0.25 0 0  0 0.25 0  1.75 0 0  0 0.75 0  0.25 1 0  1.75 1 0  2 0.75 0  3.75 0.25 0  3.104166666666667 0.25 0  2.375 0.28125 0  1.869193989071038 0.2274590163934427 0  2.864583333333333 0.2864583333333334 0  0.5267857142857143 0.5446428571428572 0  1.55477388448739 0.5520767950621235 0  0.875 0.1701948924731182 0  0.8387299196787149 0.7993850401606426 0  1.217482110586967 0.7803016742070987 0  1.125 0.1540658602150538 0  0.21875 0.21875 0  0.1796875 0.4140625 0  0.4375 0.1875 0  1.217745659133149 0.3224981913054787 0  1.625 0.1556372549019609 0  1.788217288011696 0.5113532529239767 0  3.5625 0.3125 0  1.625 0.8688154261457304 0  0.306640625 0.541015625 0  0.1416015625 0.6081194196428571 0  0.375 0.8715277777777778 0  0.9433092948717948 0.5 0  1.837864763241221 0.8378647632412206 0  0.153125 0.846875 0  4 0.125 0  3.875 0 0  4 0.375 0  3.875 0.5 0  3.625 0 0  0.8430621690551414 0.3466808663980595 0  1.117487980769231 0.4707414215686274 0  0.4558183293978749 0.7047483766233766 0  1.444783021283656 0.4170970922015235 0  1.181812154451961 0.6208936062757353 0  1.375 1 0  1.059826163500957 0.8417293761398467 0  1.864120589325511 0.6572889797635488 0  3.508928571428572 0.1607142857142857 0  0.8639708598000022 0.6402440148737837 0  2.875 0 0  2.9375 0.145691287878788 0  0.6160714285714285 0.4107142857142857 0  0.125 0 0  2.76099537037037 0.1617476851851851 0  2.262867647058823 0.1626838235294118 0  2.125 0 0  2.41535148562213 0.1307812158320577 0  2.625 0 0  3.375 0 0  1.988355877810854 0.3379279389054268 0  2.125 0.5 0  1.796961473995232 0.3603515735156393 0  3.125 0.5 0  3.239583333333333 0.3385416666666666 0  3.375 0.5 0  3.125 0 0  3.1875 0.131076388888889 0  1.27853207274582 0.1508910131204936 0  2.55531901377732 0.1285904931113402 0  2.0625 0.125 0  3.854166666666667 0.1458333333333333 0  0.5211837410805301 0.854341870540265 0  3.4375 0.375 0  0.7114552088020131 0.8630223955989935 0  0.5 0.3125 0  0.7295461519693198 0.1460230759846599 0  0.6557539682539683 0.6091269841269842 0  2.731924019607843 0.3527879901960785 0  2.239583333333333 0.3489583333333334 0  2.510416666666667 0.3489583333333333 0  0.5625 0.125 0  3.652800324675325 0.1423498376623376 0  3.875 0.3125 0  0 0.125 0  1.308759706316493 0.6761820584479443 0  1.413106084537142 0.5771382523097055 0  2.625 0.5 0  1.568249619832255 0.6915497591366558 0  1.4375 0.8742344305097827 0  1.519875973218684 0.3043809976084921 0  1.48468137254902 0.1403186274509804 0  2.997138942617666 0.3521065038684719 0  1.375 0 0  1.725975274183251 0.2453988970325736 0  3.625 0.5 0  3.6875 0.375 0  0.375 0 0  0.3167613636363636 0.1235795454545455 0  0.7483210703097173 0.703473317714317 0  1.875 0 0  0.875 1 0  1.783901687209501 0.1271944665402351 0  2.875 0.5 0  2.375 0.5 0  0.625 1 0  1.002108263961152 0.1948084677419354 0  3.060981699982765 0.112412054071747 0  2.108823110091327 0.375 0  2.375 0 0  1.125 1 0  1.875 1 0  2 0.625 0  2 0.875 0  0.375 1 0  0 0.625 0  1.625 1 0  1.625 0 0  0 0.375 0  1.125 0 0  0.875 0 0  0.125 1 0  0 0.875 0  3.388392857142857 0.125 0  0.625 0 0  1.901618338462832 0.4256139453341408 0  1.336088341454013 0.3582200387640356 0  0.9368930863491428 0.8852238753750802 0  0.1076766304347826 0.3125 0  3.119948129949073 0.3736883992935746 0  1.305157212358111 0.8795804211053843 0  0.1206266972802661 0.7287876397828053 0  0.7174489346566282 0.335741210655527 0  1.169143745342948 0.8892679735219514 0  0.1026785714285714 0.1875 0  0.1875 0.1025191326530612 0  2.485183800948486 0.2301532314363614 0  1.662801544193137 0.4818773462894298 0  0.5000731850117095 0.4301083138173303 0  1.529601021135487 0.8016397961581566 0  1.703309521686317 0.5910726577944694 0  0.7878359052180294 0.2449846248612404 0  1.076281708682297 0.5772480193905268 0  1.933551226818984 0.1152981597715245 0  1.990563905246828 0.2193238849486419 0  1.557287291358127 0.4377247365637108 0  3.799107142857143 0.3973214285714286 0  0.9676304739789288 0.7766235949031826 0  0.2611111111111111 0.8857638888888889 0  0.4172572868052079 0.5098055148333711 0  1.125155164036048 0.7172663401553875 0  3.289446004959242 0.1776160260415514 0  0.558007018234291 0.6615813164108619 0  2.6205913694237 0.3843610013567335 0  0.3877690806501986 0.6169237363785859 0  0.3359375 0.2578125 0  0.267578125 0.345703125 0  0.9235152932250335 0.2717186759820369 0  2.345052083333333 0.390625 0  1.726425440352581 0.8189046006664175 0  2.993641179928268 0.2412938418449006 0  2.835883702439309 0.3948832137021476 0  0.8125 0.9085008675494867 0  2.170741999630041 0.1009959998150203 0  1.89636732615298 0.5478099105385661 0  2.664684601157852 0.1046791189662002 0  0.9549359757316871 0.09790333561896306 0  3.3125 0.4149025537634407 0  1.381716104074725 0.1477376316828342 0  0.8125 0.08319859535650205 0  0.7575789771176743 0.6018061223736336 0  1.320007781059374 0.7781123630858716 0  0.6483134920634921 0.5074404761904762 0  3.754122132312668 0.107174667395713 0  1.694001902337915 0.08304062775387257 0  1.626292076062374 0.255859479551431 0  0.1110425383368033 0.5013559892496797 0  0.2112130102898548 0.5094901147101452 0  0.29931640625 0.44091796875 0  3.207158906011266 0.2403072123749265 0  1.5625 0.07781862745098043 0  1.119171163626748 0.2670263759933483 0  1.126708253337283 0.3689531271112884 0  1.214258094332375 0.4280937802409539 0  1.0625 0.07703293010752688 0  1.1875 0.07703293010752689 0  3.5625 0.07713293650793643 0  2.8125 0.07699890884847282 0  0.4106128246753247 0.0922957251082251 0  3.59375 0.40625 0  3.644897475102475 0.2471924253074262 0  0.53125 0.21875 0  3.46875 0.28125 0  2.32652298645806 0.08657286022399999 0  1.203053197157014 0.2147240999248289 0  1.296465178588695 0.248637069166957 0  0.9803619829425255 0.589289982457317 0  1.020833333333333 0.4284276788563058 0  0.9250818263782908 0.4024852945431842 0  0.8466546474358974 0.467605812494445 0  2.768773828976034 0.2606634667755991 0  1.495193379248573 0.6282208905589881 0  1.889799537857098 0.3247359059319133 0  2.928878215567772 0.4201142999499971 0  0.6145427273909005 0.897627284646574 0  2.440387502014829 0.4200087645067699 0  2.18742621005358 0.4283743375119112 0  0.09102701677793967 0.09104872753828278 0  2.223039215686275 0.2522977941176471 0  1.532057898326125 0.8994785755241699 0  3.90625 0.40625 0  3.3125 0.06991390306122454 0  1.621717325377612 0.7721493969534383 0  0.4407416596704232 0.8004137533866319 0  0.7735825853085805 0.4099719460960886 0  1.804511552499958 0.7408184885190405 0  1.90215906262294 0.7474684255654612 0  1.769035007553042 0.9054399297544584 0  0.08806450569358179 0.4027157738095238 0  1.542781339307526 0.2136611950882762 0  3.1875 0.4342434680286979 0  0.2318947826372472 0.7975197826372472 0  0.06766581632653063 0.8125 0  1.740499186813305 0.4328359809012937 0  0.6875 0.0656895065594436 0  0.2436930338541667 0.6227039155505952 0  0.3495083257586108 0.7820173026279231 0  0.4375 0.9357638888888888 0  3.934523809523809 0.1875 0  1.327888533483587 0.07616314353130534 0  1.4375 0.06417233924137339 0  0.1836020902149457 0.931618241059888 0  2.849597911819711 0.1575694549423245 0  1.322290647012503 0.5859490920064369 0  0 0.9375 0  0.0625 1 0  0.08488520408163265 0.90625 0  1.907285135260154 0.9072851352601544 0  3.919270833333333 0.08072916666666673 0  1.197895255484715 0.5251496038932713 0  3.356603893643108 0.337323053178446 0  0.5314776472372903 0.7607663394086168 0  0.4767572583078165 0.6182485947244335 0  3.04761156666873 0.4251045134660495 0  1.419639562874246 0.3337444110765333 0  1.473563120325012 0.5059490224954988 0  1.383028471511357 0.4903290095051402 0  1.774399247095356 0.6468049249189372 0  2.6875 0.5 0  0.8720427158682547 0.5522468402613318 0  0.4140625 0.296875 0  1.6875 1 0  0.9339540085299314 0.6946357832924107 0  1.089970753994 0.9218704076784999 0  0.3636427154181411 0.6983126896224529 0  1.13842906975506 0.8104378835643388 0  0.6456112293354246 0.1387840085863776 0  1.050067412334769 0.7566967523351236 0  1.617266576573942 0.6164263029070107 0  3.289788848543167 0.2675018173797452 0  3.836805555555555 0.2326388888888889 0  3.6875 0 0  3.466555215182307 0.0824632023311417 0  2.5625 0.5 0  0.06550603987731521 0.5721451437613042 0  2.030151366181526 0.4163794463712129 0  1.709917118732619 0.1642338369568616 0  0.7058889897426347 0.7777025451760291 0  1.205041537300479 0.6993905609234736 0  0.1868917396185889 0.3326442902239 0  2.34891733944972 0.1936104083361969 0  0.7057766574988986 0.226671164086076 0  2.064217354829143 0.3056805737941742 0  0.1991705040458291 0.6954795961718226 0  2.699779962883584 0.2163252213409452 0  0.6875 1 0  3.82692987537652 0.06753760124426478 0  0.3125 1 0  3.585776824798251 0.1900168695681863 0  0.8305622577614407 0.7165173764931938 0  3.433779761904762 0.1930803571428572 0  0.6943735827664399 0.4383503401360543 0  0.5671725815168438 0.4748412448207531 0  0.6356776209485275 0.3311983598939658 0  2 0.8125 0  2.175593215457547 0.1840083055106494 0  1.91820559721859 0.826944301282785 0  2.53125 0.4262751436781609 0  3.165759738109597 0.308440334380415 0  3.517857142857143 0.3794642857142857 0  0.07584180090947087 0.658845
[...]
<CellData  Scalars="f">
<DataArray  type="Float64"  Name="f"  format="ascii">2 4 0 0 0 0 5 4 3 5 1 3 6 1 6 0 6 6 2 0 0 3 3 0 6 6 0 0 4 4 0 0 0 6 6 0 6 6 0 0 0 3 3 1 0 1 0 0 0 0 0 0 0 0 0 0 6 6 0 0 0 3 3 0 6 6 0 0 4 4 0 0 6 6 4 0 4 0 0 0 0 0 0 0 0 0 0 0 0 0 0 0 0 0 0 0 0 0 4 4 0 0 6 6 0 0 0 4 4 0 0 6 6 0 0 0 0 0 0 0 0 0 0 0 0 0 0 6 6 0 0 4 4 0 2 2 0 4 0 4 0 0 6 6 0 0 0 0 0 0 0 0 3 3 0 0 0 0 0 0 0 0 0 6 6 0 0 3 3 0 0 6 6 0 0 0 0 0 0 0 0 0 0 0 0 0 0 0 0 0 0 0 0 0 0 0 0 0 0 0 0 0 0 0 0 0 0 0 0 0 0 0 0 0 0 0 0 0 0 6 6 0 0 1 1 0 0 6 6 0 1 0 1 0 0 3 3 0 3 3 0 5 5 0 0 0 0 0 0 0 0 0 0 0 0 0 0 0 0 0 0 0 0 0 0 0 0 0 0 0 0 0 0 0 0 0 0 0 0 0 0 0 0 0 0 0 0 0 0 0 0 0 0 0 0 0 0 0 0 0 0 0 0 0 0 0 0 0 0 0 0 0 0 0 0 0 0 0 0 0 0 0 0 0 0 0 0 0 0 0 0 0 0 0 0 0 0 0 0 0 0 0 0 0 0 0 0 0 0 0 0 0 0 0 0 0 0 0 0 0 0 0 0 0 0 0 0 0 0 0 0 0 0 0 0 0 0 0 0 0 0 0 0 0 0 0 0 0 0 0 0 0 0 0 0 0 0 0 0 0 2 2 0 0 6 6 0 0 2 2 0 0 4 4 0 0 6 6 0 0 0 0 0 0 0 0 0 0 0 0 0 0 0 0 0 0 0 0 0 0 0 0 0 0 0 0 0 0 0 0 3 0 3 0 0 0 0 0 0 0 0 0 0 0 0 0 0 0 0 0 0 0 0 0 0 0 0 0 0 0 0 0 6 6 0 0 0 0 0 0 0 0 0 0 0 0 0 0 0 6 0 6 0 0 0 0 0 0 0 0 0 0 0 0 6 0 6 0 0 0 0 0 0 6 6 0 6 0 6 0 0 0 0 0 0 0 0 4 0 4 0 0 0 0 0 0 0 0 4 4 0 0 0 0 0 0 0 0 0 4 4 6 0 0 6 0 0 0 0 0 0 0 0 0 0 0 0 0 0 0 0 0 0 0 0 0 0 0 0 0 0 0 0 0 0 0 0 0 0 0 0 0 0 0 0 0 0 0 0 0 0 0 0 0 0 0 0 0 0 0 0 0 0 0 0 0 0 0 0 0 0 0 0 0 0 0 0 0 0 0 0 0 0 0 0 0 0 0 0 0 0 0 0 0 0 0 0 0 0 0 0 0 0 0 0 0 0 0 0 0 0 0 0 0 0 1 1 0 0 0 0 0 0 0 0 0 0 0 0 0 0 0 4 4 0 0 0 0 0 0 0 0 0 0 0 0 0 0 0 0 0 0 0 0 0 0 0 0 0 0 0 0 0 0 0 0 0 0 0 0 6 6 0 0 0 0 0 0 0 4 4 0 0 0 0 0 0 0 6 0 6 0 0 0 0 0 0 0 0 0 0 0 0 6 6 0 3 3 0 0 0 0 0 0 0 4 0 4 0 4 0 0 4 0 3 3 0 0 0 0 0 0 0 0 0 0 0 0 0 0 0 0 0 0 0 6 0 6 0 0 3 3 0 3 0 3 0 5 5 0 0 5 5 0 0 3 0 3 0 0 1 1 3 0 3 0 0 0 6 6 0 1 0 1 0 6 6 0 6 0 6 0 0 3 3 0 0 1 1 0 0 0 0 0 0 0 0 6 6 0 0 0 0 0 0 0 0 0 0 0 0 0 0 0 0 0 0 0 0 0 0 0 0 0 0 0 0 0 0 0 0 0 0 0 0 0 0 0 0 0 0 0 0 0 0 0 0 0 0 0 0 0 0 0 0 0 0 0 0 0 0 0 0 0 0 0 0 0 0 0 0 0 0 0 0 0 0 0 0 0 0 0 0 0 0 0 0 0 0 0 0 0 0 0 0 0 0 0 0 0 0 0 0 0 0 0 0 0 0 0 0 0 0 0 0 0 0 0 0 0 0 0 0 0 0 0 0 0 0 0 0 0 0 0 0 0 0 0 0 0 0 0 0 0 0 0 0 0 0 0 0 0 0 0 0 0 0 0 0 0 0 0 0 0 0 0 0 0 0 0 0 0 0 0 0 0 0 0 0 0 0 0 0 0 0 0 0 0 0 0 0 0 0 0 0 0 0 0 0 0 0 0 0 0 0 0 0 0 0 0 0 0 0 0 0 0 0 0 0 0 0 0 0 0 0 0 0 0 0 0 0 0 0 0 0 0 0 0 0 0 0 0 0 0 0 0 0 0 0 0 0 0 0 0 0 0 0 0 0 0 0 0 0 0 0 0 0 0 0 0 0 0 0 0 0 0 0 0 0 0 0 0 0 0 0 0 0 0 0 0 0 0 0 0 0 0 0 0 0 0 0 0 0 0 0 0 0 0 0 0 0 0 0 0 0 0 0 0 0 0 0 0 0 0 0 0 0 0 0 0 0 0 0 0 0 0 0 0 0 0 0 0 0 0 0 0 0 0 0 0 0 0 0 0 0 0 0 0 0 0 0 0 0 0 0 0 0 0 0 0 0 0 0 0 0 0 0 0 0 0 0 0 0 0 0 0 0 0 0 0 0 0 0 0 0 0 0 0 0 0 0 0 0 0 0 0 0 0 0 0 0 0 0 0 0 0 0 0 0 0 0 0 0 0 0 0 0 0 0 0 0 0 0 0 0 0 0 0 0 0 0 0 0 0 0 0 0 0 0 0 0 0 0 0 0 0 0 0 0 0 0 0 0 0 0 0 0 0 0 0 0 0 0 0 0 0 0 0 0 0 0 0 0 0 0 0 0 0 0 0 0 0 0 0 0 0 0 0 0 0 0 0 0 0 0 0 0 0 0 0 0 0 0 0 0 0 0 0 0 0 0 0 0 0 0 0 0 0 0 0 0 0 0 0 0 0 0 0 0 0 0 0 0 0 0 0 0 0 0 0 0 0 0 0 0 0 0 0 0 0 0 0 0 0 0 0 0 0 0 0 0 0 0 0 0 0 0 0 0 0 0 0 0 0 0 0 0 0 0 0 0 0 0 0 0 0 0 0 0 0 0 0 0 0 0 0 0 0 0 0 0 0 0 0 0 0 0 0 0 0 0 0 0 0 0 0 0 0 0 0 0 0 0 0 0 0 0 0 0 0 0 0 0 0 0 0 0 0 0 0 0 0 0 0 0 0 0 0 0 0 0 0 0 0 0 0 0 0 0 0 0 0 0 0 0 0 0 0 0 0 0 0 0 0 0 0 0 0 0 0 0 0 1 1 0 0 3 3 0 0 0 0 0 0 0 0 0 0 0 0 0 0 0 0 0 0 0 0 0 0 0 0 0 0 0 0 0 0 0 0 0 0 0 0 0 0 0 0 0 0 0 0 0 0 0 0 0 0 0 0 0 0 0 0 0 0 0 0 0 0 0 0 0 0 0 0 0 0 0 0 0 0 0 0 0 0 0 0 0 0 0 4 4 0 0 0 0 0 0 0 0 0 0 0 0 3 0 3 0 0 0 0 0 0 0 0 0 0 0 0 0 0 0 0 0 0 0 0 0 0 0 0 0 0 0 0 0 0 0 0 0 0 0 0 0 0 0 0 0 0 0 0 0 0 0 0 0 0 0 0 0 0 0 0 0 0 0 0 6 6 0 0 0 0 0 0 0 4 4 0 0 0 0 0 0 0 0 0 0 0 0 0 0 0 0 0 0 0 0 0 0 0 0 0 0 0 0 0 0 0 0 0 0 0 0 0 0 0 0 0 0 0 0 0 0 0 0 0 0 0 0 0 0 0 0 0 0 0 0 0 0 0 0 0 0 0 0 0 0 3 3 0 0 0 0 0 0 0 0 0 3 3 0 0 0 0 0 0 0 0 0 0 0 0 0 0 0 0 0 0 0 0 0 0 0 0 0 0 0 0 0 0 0 0 0 0 0 0 0 0 0 0 0 0 0 5 5 0 0 0 0 0 0 0 0 0 0 0 0 0 0 0 0 0 0 0 0 0 0 0 0 0 0 0 0 0 0 0 0 0 0 0 0 0 0 0 0 0 0 0 0 0 0 0 0 0 0 0 0 0 0 0 0 0 0 0 0 0 0 0 0 0 0 0 0 0 0 0 0 0 0 0 0 0 0 0 0 0 0 0 0 0 5 5 0 0 6 6 0 0 0 0 0 0 0 0 0 0 0 0 0 0 0 0 0 0 0 0 0 0 0 0 0 0 0 0 0 0 0 0 0 0 0 0 0 0 0 0 0 0 0 0 3 0 3 0 0 0 0 0 0 0 0 0 0 0 0 0 0 0 0 0 0 0 0 0 0 0 0 0 0 0 0 0 0 0 0 0 0 0 0 0 0 0 0 0 0 0 0 0 0 0 0 0 0 0 0 0 0 0 0 0 0 0 0 0 0 0 0 0 0 0 0 0 0 0 0 0 0 0 0 0 0 0 0 0 0 0 0 0 0 0 0 0 0 0 0 0 0 0 0 0 0 0 0 0 0 0 0 0 0 0 0 0 0 0 0 0 0 0 0 0 0 0 0 0 0 0 0 0 0 0 0 0 0 0 0 0 0 0 0 0 0 0 0 0 0 0 0 0 0 0 0 0 0 0 0 0 0 0 0 0 0 0 0 0 0 0 0 0 0 0 0 0 0 0 0 0 0 0 0 6 6 0 0 0 0 0 0 0 0 0 0 0 0 0 0 0 0 0 0 0 0 0 0 0 0 0 0 0 0 0 0 0 0 0 0 0 0 0 0 0 0 0 0 0 0 0 0 0 0 0 0 0 0 0 0 0 0 0 0 0 0 0 0 0 0 0 0 0 0 0 0 0 0 0 0 0 0 0 0 0 0 0 0 0 0 0 0 0 0 0 0 0 0 0 0 0 0 0 0 0 0 0 0 0 0 0 0 0 0 0 0 0 0 0 0 0 0 0 0 0 0 0 0 0 0 0 0 0 0 0 0 0 0 0 3 3 0 0 0 0 0 0 0 0 0 0 0 0 0 0 0 0 0 0 0 0 0 0 0 0 0 0 0 0 0 0 0 0 0 0 0 0 0 0 0 0 0 0 0 0 0 0 0 0 0 0 0 0 0 0 0 0 0 0 0 0 0 3 0 3 0 0 0 0 0 0 0 0 0 0 0 0 0 0 0 0 0 0 0 0 0 0 0 0 0 0 0 0 0 0 0 0 0 0 0 0 0 0 0 0 0 0 0 0 0 0 0 0 0 0 0 0 0 0 0 0 0 0 0 0 0 0 0 0 0 0 0 0 0 0 0 0 0 0 0 0 0 0 0 0 0 0 0 0 0 0 0 0 0 0 0 0 0 0 0 0 0 0 0 0 0 0 0 0 0 0 0 0 0 0 0 0 0 0 0 0 0 0 0 0 0 0 0 6 6 0 0 0 0 0 0 0 0 0 0 0 0 0 0 0 0 0 0 0 0 0 0 0 0 0 0 0 0 0 0 0 0 0 0 0 0 0 0 0 0 6 6 0 0 0 0 0 0 0 0 0 3 3 0 0 0 0 0 0 0 0 0 0 0 0 0 0 0 0 0 0 0 0 0 0 0 0 0 0 0 0 0 0 0 0 0 0 0 0 0 0 0 0 0 0 0 0 0 0 0 0 0 0 0 0 0 0 0 0 0 0 0 0 0 0 0 0 0 0 0 0 6 0 6 0 0 6 0 6 0 0 0 0 0 0 0 0 0 0 0 0 0 0 0 6 6 0 0 0 0 0 0 0 0 0 0 0 0 0 0 0 0 0 0 0 0 0 0 0 0 6 0 6 0 0 0 0 0 0 0 0 0 0 0 0 0 0 0 6 6 4 4 0 0 2 0 2 0 0 4 4 0 0 0 0 0 0 0 0 0 0 0 0 0 0 0 0 0 0 0 0 0 0 0 0 0 0 0 0 0 0 0 0 0 0 0 0 0 0 0 0 0 0 0 0 0 0 0 0 0 0 0 0 0 0 0 0 0 1 1 0 0 4 0 4 0 0 3 3 0 0 5 5 0 0 0 0 0 0 0 3 3 0 0 0 0 0 0 0 0 0 0 0 0 0 0 0 0 0 0 0 0 0 0 0 0 0 0 0 0 0 0 0 0 0 0 0 0 0 0 0 0 0 0 0 0 0 0 0 0 0 0 6 6 0 0 0 0 0 0 0 0 0 0 0 0 0 0 0 0 0 0 0 0 4 4 0 5 0 5 0 0 0 0 0 0 0 0 0 0 0 0 0 0 0 0 0 0 0 0 6 6 0 0 1 1 0 0 0 0 0 0 6 0 6 0 0 0 0 6 6 0 0 0 0 0 0 0 0 0 0 0 0 0 0 0 0 0 0 0 0 0 0 0 0 0 0 0 0 0 0 0 0 0 0 0 0 0 0 0 0 0 0 0 0 0 0 0 0 0 0 0 0 0 0 0 0 0 0 0 0 0 0 0 0 0 0 0 0 0 0 0 0 0 0 0 0 0 0 0 0 0 0 0 0 0 0 6 6 0 0 0 0 0 0 0 0 0 0 0 0 0 0 0 0 0 0 0 0 0 0 0 0 0 0 0 0 0 0 0 0 0 0 0 0 0 0 0 0 0 0 0 0 0 0 0 0 0 0 0 0 0 0 0 6 0 6 4 0 4 0 6 0 6 1 1 0 0 0 0 4 4 0 0 6 6 0 0 6 6 0 0 6 6 0 0 2 2 3 0 0 3 0 0 6 6 0 0 4 4 0 0 6 6 0 4 4 4 0 0 4 0 4 0 4 0 0 6 6 0 0 6 6 0 0 6 6 0 0 6 6 0 0 0 0 0 0 0 0 6 6 0 0 0 6 6 0 0 6 6 0 0 0 6 6 0 0 4 4 0 3 0 3 0 6 0 6 0 0 1 1 0 0 1 1 0 0 1 1 0 0 3 3 0 0 2 2 0 0 3 3 0 0 6 6 0 1 0 1 0 0 3 3 0 0 2 2 0 4 0 4 0 3 3 0 4 4 0 4 0 4 0 0 0 0 0 0 0 0 0 0 0 0 0 0 0 0 0 0 0 0 0 0 0 0 0 0 0 0 0 0 0 0 0 0 0 0 0 0 0 0 0 0 0 0 0 0 0 0 0 0 0 0 0 0 0 0 0 0 0 0 0 0 0 0 0 0 0 0 0 0 0 0 0 0 0 0 0 0 0 0 0 0 0 0 0 0 0 0 0 0 0 0 0 0 0 0 0 0 0 0 0 0 0 0 0 0 0 0 0 0 0 0 0 0 0 0 0 0 0 0 0 0 0 0 0 0 0 0 0 0 0 0 0 0 0 0 0 0 0 0 0 0 0 0 0 0 0 0 0 0 0 0 0 0 0 0 0 0 0 0 0 0 0 0 0 0 0 0 0 0 0 0 0 0 0 0 0 0 0 0 0 0 0 0 0 0 0 0 0 0 0 0 0 0 0 0 0 0 0 0 0 0 0 0 0 0 0 0 0 0 0 0 0 0 0 0 0 0 0 0 0 0 0 0 0 0 0 0 0 0 0 0 0 0 0 0 0 0 0 0 0 0 0 0 0 0 0 0 0 0 0 0 0 0 0 0 0 0 0 0 0 0 0 0 0 0 0 0 0 0 0 0 0 0 0 0 0 0 0 0 0 0 0 0 0 0 0 0 0 0 0 0 0 0 0 0 0 0 0 0 0 0 0 0 0 0 0 0 0 0 0 0 0 0 0 0 0 0 0 0 0 0 0 0 0 0 0 0 0 0 0 0 0 0 0 0 0 0 0 0 0 0 0 0 0 0 0 0 0 0 0 0 0 0 0 0 0 0 0 0 0 0 0 0 0 0 0 0 0 0 0 0 0 0 0 0 0 0 0 0 0 0 0 0 0 0 0 0 0 0 0 0 0 0 0 0 0 0 0 0 0 0 0 0 0 0 0 0 0 0 0 0 0 0 0 0 0 0 0 0 0 0 0 0 0 0 0 0 0 0 0 0 0 0 0 0 0 0 0 0 0 0 0 0 0 0 0 0 0 0 0 0 0 0 0 0 0 0 0 0 0 0 0 0 0 0 0 0 0 0 0 0 0 0 0 0 0 0 0 0 0 0 0 0 0 0 0 0 0 0 0 0 0 0 0 0 0 0 0 0 0 0 0 0 0 0 0 0 0 0 0 0 0 0 0 0 0 0 0 0 0 0 0 0 0 0 0 0 0 0 0 0 0 0 0 0 0 0 0 0 0 0 0 0 0 0 0 0 0 0 0 0 0 0 0 0 0 0 0 0 0 0 0 0 0 0 0 0 0 0 0 0 0 0 0 0 0 0 0 0 0 0 0 0 0 0 0 0 0 0 0 0 0 0 0 0 0 0 0 0 0 0 0 0 0 0 0 0 0 0 0 0 0 0 0 0 0 0 0 0 0 0 0 0 0 0 0 0 0 0 0 0 0 0 0 0 0 0 0 0 0 0 0 0 0 0 0 0 0 0 0 0 0 0 0 0 0 0 0 0 0 0 0 0 0 0 0 0 0 0 0 0 0 0 0 0 0 0 0 0 0 0 0 0 0 0 0 0 0 0 0 0 0 0 0 0 0 0 0 0 0 0 0 0 0 0 0 0 0 0 0 0 0 0 0 0 0 0 0 0 0 0 0 0 0 0 0 0 0 0 0 0 0 0 0 0 0 0 0 0 0 0 0 0 0 0 0 0 0 0 0 0 0 0 0 0 0 0 0 0 0 0 0 0 0 0 0 0 0 0 0 0 0 0 0 0 0 0 0 0 0 0 0 0 0 0 0 0 0 0 0 0 0 0 0 0 0 0 0 0 0 0 0 0 0 0 0 0 0 0 0 0 0 0 0 0 0 0 0 0 0 0 0 0 0 0 0 0 0 0 0 0 0 0 0 0 0 0 0 0 0 0 0 0 0 0 0 0 0 0 0 0 0 0 0 0 0 0 0 0 0 0 0 0 0 0 0 0 0 0 0 0 0 0 0 0 0 0 0 0 0 0 0 0 0 0 0 0 0 0 0 0 0 0 0 0 0 0 0 0 0 0 0 0 0 0 0 0 0 0 0 0 0 0 0 0 0 0 0 0 0 0 0 0 0 0 0 0 0 0 0 0 0 0 0 0 0 0 0 0 0 0 0 0 0 0 0 0 0 0 0 0 0 0 0 0 0 0 0 0 0 0 0 0 0 0 0 0 0 0 0 0 0 0 0 0 0 0 0 0 0 0 0 0 0 0 0 0 0 0 0 0 0 0 0 0 0 0 0 0 0 0 0 0 0 0 0 0 0 0 0 0 0 0 0 0 0 0 0 0 0 0 0 0 0 0 0 0 0 0 0 0 0 0 0 0 0 0 0 0 0 0 0 0 0 0 0 0 0 0 0 0 0 0 0 0 0 0 0 0 0 0 0 0 0 0 0 0 0 0 0 0 0 0 0 0 0 0 0 0 0 0 0 0 0 0 0 0 0 0 0 0 0 0 0 0 0 0 0 0 0 0 0 0 0 0 0 0 0 0 0 0 0 0 0 0 0 0 0 0 0 0 0 0 0 0 0 0 0 0 0 0 0 0 0 0 0 0 0 0 0 0 0 0 0 0 0 0 0 0 0 0 0 0 0 0 0 0 0 0 0 0 0 0 0 0 0 0 0 0 0 0 0 0 0 0 0 0 0 0 0 0 0 0 0 0 0 0 0 0 0 0 0 0 0 0 0 0 0 0 0 0 0 0 0 0 0 0 0 0 0 0 0 0 0 0 0 0 0 0 0 0 0 0 0 0 0 0 0 0 0 0 0 0 0 0 0 0 0 0 0 0 0 0 0 0 0 0 0 0 0 0 0 0 0 0 0 0 0 0 0 0 0 0 0 0 0 0 0 0 0 0 0 0 0 0 0 0 0 0 0 0 0 0 0 0 0 0 0 0 0 0 0 0 0 0 0 0 0 0 0 0 0 0 0 0 0 0 0 0 0 0 0 0 0 0 0 0 0 0 0 0 0 0 0 0 0 0 0 0 0 0 0 0 0 0 0 0 0 0 0 0 0 0 0 0 0 0 0 0 0 0 0 0 0 0 0 0 0 0 0 0 0 0 0 0 0 0 0 0 0 0 0 0 0 0 0 0 0 0 0 0 0 0 0 0 0 0 0 0 0 0 0 0 0 0 0 0 0 0 0 0 0 0 0 0 0 0 0 0 0 0 0 0 0 0 0 0 0 0 0 0 0 0 0 0 0 0 0 0 0 0 0 0 0 0 0 0 0 0 0 0 0 0 0 0 0 0 0 0 0 0 0 0 0 0 0 0 0 0 0 0 0 0 0 0 0 0 0 0 0 0 0 0 0 0 0 0 0 0 0 0 0 0 0 0 0 0 0 0 0 0 0 0 0 0 0 0 0 0 0 0 0 0 0 0 0 0 0 0 0 0 0 0 0 0 0 0 0 0 0 0 0 0 0 0 0 0 0 0 0 0 0 0 0 0 0 0 0 0 0 0 0 0 0 0 0 0 0 0 0 0 0 0 0 0 0 0 0 0 0 0 0 0 0 0 0 0 0 0 0 0 0 0 0 0 0 0 0 0 0 0 0 0 0 0 0 0 0 0 0 0 0 0 0 0 0 0 0 0 0 0 0 0 0 0 0 0 0 0 0 0 0 0 0 0 0 0 0 0 0 0 0 0 0 0 0 0 0 0 0 0 0 0 0 0 0 0 0 0 0 0 0 0 0 0 0 0 0 0 0 0 0 0 0 0 0 0 0 0 0 0 0 0 0 0 0 0 0 0 0 0 0 0 0 0 0 0 0 0 0 0 0 0 0 0 0 0 0 0 0 0 0 0 0 0 0 0 0 0 0 0 0 0 0 0 0 0 0 0 0 0 0 0 0 0 0 0 0 0 0 0 0 0 0 0 0 0 0 0 0 0 0 0 0 0 0 0 0 0 0 0 0 0 0 0 0 0 0 0 0 0 0 0 0 0 0 0 0 0 0 0 0 0 0 0 0 0 0 0 0 0 0 0 0 0 0 0 0 0 0 0 0 0 0 0 0 0 0 0 0 0 0 0 0 0 0 0 0 0 0 0 0 0 0 0 0 0 0 0 0 0 0 0 0 0 0 0 0 0 0 0 0 0 0 0 0 0 0 0 0 0 0 0 0 0 0 0 0 0 0 0 0 0 0 0 0 0 0 0 0 0 0 0 0 0 0 0 0 0 0 0 0 0 0 0 0 0 0 0 0 0 0 0 0 0 0 0 0 0 0 0 0 0 0 0 0 0 0 0 0 0 0 0 0 0 0 0 0 0 0 0 0 0 0 0 0 0 0 0 0 0 0 0 0 0 0 0 0 0 0 0 0 0 0 0 0 0 0 0 0 0 0 0 0 0 0 0 0 0 0 0 0 0 0 0 0 0 0 0 0 0 0 0 0 0 0 0 0 0 0 0 0 0 0 0 0 0 0 0 0 0 0 0 0 0 0 0 0 0 0 0 0 0 0 0 0 0 0 0 0 0 0 0 0 0 0 0 0 0 0 0 0 0 0 0 0 0 0 0 0 0 0 0 0 0 0 0 0 0 0 0 0 0 0 0 0 0 0 0 0 0 0 0 0 0 0 0 0 0 0 0 0 0 0 0 0 0 0 0 0 0 0 0 0 0 0 0 0 0 0 0 0 0 0 0 0 0 0 0 0 0 0 0 0 0 0 0 0 0 0 0 0 0 0 0 0 0 0 0 0 0 0 0 0 0 0 0 0 0 0 0 0 0 0 0 0 0 0 0 0 0 0 0 0 0 0 0 0 0 0 0 0 0 0 0 0 0 0 0 0 0 0 0 0 0 0 0 0 0 0 0 0 0 0 0 0 0 0 0 0 0 0 0 0 0 0 0 0 0 0 0 0 0 0 0 0 0 0 0 0 0 0 0 0 0 0 0 0 0 0 0 0 0 0 0 0 0 0 0 0 0 0 0 0 0 0 0 0 0 0 0 0 0 0 0 0 0 0 0 0 0 0 0 0 0 0 0 0 0 0 0 0 0 0 0 0 0 0 0 0 0 0 0 0 0 0 0 0 0 0 0 0 0 0 0 0 0 0 0 0 0 0 0 0 0 0 0 0 0 0 0 0 0 0 0 0 0 0 0 0 0 0 0 0 0 0 0 0 0 0 0 0 0 0 0 0 0 0 0 0 0 0 0 0 0 0 0 0 0 0 0 0 0 0 0 0 0 0 0 0 0 0 0 0 0 0 0 0 0 0 0 0 0 0 0 0 0 0 0 0 0 0 0 0 0 0 0 0 0 0 0 0 0 0 0 0 0 0 0 0 0 0 0 0 0 0 0 0 0 0 0 0 0 0 0 0 0 0 0 0 0 0 0 0 0 0 0 0 0 0 0 0 0 0 0 0 0 0 0 0 0 0 0 0 0 0 0 0 0 0 0 0 0 0 0 0 0 0 0 0 0 0 0 0 0 0 0 0 0 0 0 0 0 0 0 0 0 0 0 0 0 0 0 0 0 0 0 0 0 0 0 0 0 0 0 0 0 0 0 0 0 0 0 0 0 0 0 0 0 0 0 0 0 0 0 0 0 0 0 0 0 0 0 0 0 0 0 0 0 0 0 0 0 0 0 0 0 0 0 0 0 0 0 0 0 0 0 0 0 0 0 0 0 0 0 0 0 0 0 0 0 0 0 0 0 0 0 0 0 0 0 0 0 0 0 0 0 0 0 0 0 0 0 0 0 0 0 0 0 0 0 0 0 0 0 0 0 0 0 0 0 0 0 0 0 0 0 0 0 0 0 0 0 0 0 0 0 0 0 0 0 0 0 0 0 0 0 0 0 0 0 0 0 0 0 0 0 0 0 0 0 0 0 0 0 0 0 0 0 0 0 0 0 0 0 0 0 0 0 0 0 0 0 0 0 0 0 0 0 0 0 0 0 0 0 0 0 0 0 0 0 0 0 0 0 0 0 0 0 0 0 0 0 0 0 0 0 0 0 0 0 0 0 0 0 0 0 0 0 0 0 0 0 0 0 0 0 0 0 0 0 0 0 0 0 0 0 0 0 0 0 0 0 0 0 0 0 0 0 0 0 0 0 0 0 0 0 0 0 0 0 0 0 0 0 0 0 0 0 0 0 0 0 0 0 0 0 0 0 0 0 0 0 0 0 0 0 0 0 0 0 0 0 0 0 0 0 0 0 0 0 0 0 0 0 0 0 0 0 0 0 0 0 0 0 0 0 0 0 0 0 0 0 0 0 0 0 0 0 0 0 0 0 0 0 0 0 0 0 0 0 0 0 0 0 0 0 0 0 0 0 0 0 0 0 0 0 0 0 0 0 0 0 0 0 0 0 0 0 0 0 0 0 0 0 0 0 0 0 0 0 0 0 0 0 0 0 0 0 0 0 0 0 0 0 0 0 0 0 0 0 0 0 0 0 0 0 0 0 0 0 0 0 0 0 0 0 0 0 0 0 0 0 0 0 0 0 0 0 0 0 0 0 0 0 0 0 0 0 0 0 0 0 0 0 0 0 0 0 0 0 0 0 0 0 0 0 0 0 0 0 0 0 0 0 0 0 0 0 0 0 0 0 0 </DataArray>
</CellData>
</Piece>
</UnstructuredGrid>
</VTKFile>