<?xml version="1.0"?>
<VTKFile type="UnstructuredGrid"  version="0.1"  >
<UnstructuredGrid>
<Piece  NumberOfPoints="2152" NumberOfCells="3982">
<Points>
<DataArray  type="Float64"  NumberOfComponents="3"  format="ascii">4 0.5 0  2 0.5 0  2 1 0  0 1 0  0 0 0  2 0 0  4 0 0  1 1 0  1 0 0  3 0.5 0  3 0 0  0.5 0 0  0.5 1 0  0 0.5 0  0.75 0.5 0  1.5 0 0  1.5 1 0  2.5 0 0  2.5 0.5 0  3.5 0 0  3.5 0.5 0  1.291666666666667 0.5 0  0.375 0.375 0  1.645833333333333 0.3541666666666668 0  2.75 0.5 0  2.75 0 0  2.25 0.5 0  2.25 0 0  1.707465277777778 0.7074652777777779 0  0.28125 0.71875 0  3.25 0 0  3.25 0.5 0  4 0.25 0  3.75 0.5 0  3.75 0 0  1.020833333333333 0.6770833333333334 0  0.75 1 0  1.020833333333333 0.3229166666666666 0  0.75 0 0  1.25 1 0  1.25 0 0  3.375 0.25 0  0.625 0.75 0  2.125 0.25 0  2.625 0.25 0  1.395833333333333 0.25 0  1.434656179076067 0.7338238142738609 0  0.625 0.25 0  0.25 0 0  0 0.25 0  1.75 0 0  0 0.75 0  0.25 1 0  1.75 1 0  2 0.75 0  3.75 0.25 0  3.104166666666667 0.25 0  2.375 0.28125 0  1.869193989071038 0.2274590163934427 0  2.864583333333333 0.2864583333333334 0  0.5267857142857143 0.5446428571428572 0  1.55477388448739 0.5520767950621235 0  0.875 0.1701948924731182 0  0.8387299196787149 0.7993850401606426 0  1.217482110586967 0.7803016742070987 0  1.125 0.1540658602150538 0  0.21875 0.21875 0  0.1796875 0.4140625 0  0.4375 0.1875 0  1.217745659133149 0.3224981913054787 0  1.625 0.1556372549019609 0  1.788217288011696 0.5113532529239767 0  3.5625 0.3125 0  1.625 0.8688154261457304 0  0.306640625 0.541015625 0  0.1416015625 0.6081194196428571 0  0.375 0.8715277777777778 0  0.9433092948717948 0.5 0  1.837864763241221 0.8378647632412206 0  0.153125 0.846875 0  4 0.125 0  3.875 0 0  4 0.375 0  3.875 0.5 0  3.625 0 0  0.8430621690551414 0.3466808663980595 0  1.117487980769231 0.4707414215686274 0  0.4558183293978749 0.7047483766233766 0  1.444783021283656 0.4170970922015235 0  1.181812154451961 0.6208936062757353 0  1.375 1 0  1.059826163500957 0.8417293761398467 0  1.864120589325511 0.6572889797635488 0  3.508928571428572 0.1607142857142857 0  0.8639708598000022 0.6402440148737837 0  2.875 0 0  2.9375 0.145691287878788 0  0.6160714285714285 0.4107142857142857 0  0.125 0 0  2.76099537037037 0.1617476851851851 0  2.262867647058823 0.1626838235294118 0  2.125 0 0  2.41535148562213 0.1307812158320577 0  2.625 0 0  3.375 0 0  1.988355877810854 0.3379279389054268 0  2.125 0.5 0  1.796961473995232 0.3603515735156393 0  3.125 0.5 0  3.239583333333333 0.3385416666666666 0  3.375 0.5 0  3.125 0 0  3.1875 0.131076388888889 0  1.27853207274582 0.1508910131204936 0  2.55531901377732 0.1285904931113402 0  2.0625 0.125 0  3.854166666666667 0.1458333333333333 0  0.5211837410805301 0.854341870540265 0  3.4375 0.375 0  0.7114552088020131 0.8630223955989935 0  0.5 0.3125 0  0.7295461519693198 0.1460230759846599 0  0.6557539682539683 0.6091269841269842 0  2.731924019607843 0.3527879901960785 0  2.239583333333333 0.3489583333333334 0  2.510416666666667 0.3489583333333333 0  0.5625 0.125 0  3.652800324675325 0.1423498376623376 0  3.875 0.3125 0  0 0.125 0  1.308759706316493 0.6761820584479443 0  1.413106084537142 0.5771382523097055 0  2.625 0.5 0  1.568249619832255 0.6915497591366558 0  1.4375 0.8742344305097827 0  1.519875973218684 0.3043809976084921 0  1.48468137254902 0.1403186274509804 0  2.997138942617666 0.3521065038684719 0  1.375 0 0  1.725975274183251 0.2453988970325736 0  3.625 0.5 0  3.6875 0.375 0  0.375 0 0  0.3167613636363636 0.1235795454545455 0  0.7483210703097173 0.703473317714317 0  1.875 0 0  0.875 1 0  1.783901687209501 0.1271944665402351 0  2.875 0.5 0  2.375 0.5 0  0.625 1 0  1.002108263961152 0.1948084677419354 0  3.060981699982765 0.112412054071747 0  2.108823110091327 0.375 0  2.375 0 0  1.125 1 0  1.875 1 0  2 0.625 0  2 0.875 0  0.375 1 0  0 0.625 0  1.625 1 0  1.625 0 0  0 0.375 0  1.125 0 0  0.875 0 0  0.125 1 0  0 0.875 0  3.388392857142857 0.125 0  0.625 0 0  1.901618338462832 0.4256139453341408 0  1.336088341454013 0.3582200387640356 0  0.9368930863491428 0.8852238753750802 0  0.1076766304347826 0.3125 0  3.119948129949073 0.3736883992935746 0  1.305157212358111 0.8795804211053843 0  0.1206266972802661 0.7287876397828053 0  0.7174489346566282 0.335741210655527 0  1.169143745342948 0.8892679735219514 0  0.1026785714285714 0.1875 0  0.1875 0.1025191326530612 0  2.485183800948486 0.2301532314363614 0  1.662801544193137 0.4818773462894298 0  0.5000731850117095 0.4301083138173303 0  1.529601021135487 0.8016397961581566 0  1.703309521686317 0.5910726577944694 0  0.7878359052180294 0.2449846248612404 0  1.076281708682297 0.5772480193905268 0  1.933551226818984 0.1152981597715245 0  1.990563905246828 0.2193238849486419 0  1.557287291358127 0.4377247365637108 0  3.799107142857143 0.3973214285714286 0  0.9676304739789288 0.7766235949031826 0  0.2611111111111111 0.8857638888888889 0  0.4172572868052079 0.5098055148333711 0  1.125155164036048 0.7172663401553875 0  3.289446004959242 0.1776160260415514 0  0.558007018234291 0.6615813164108619 0  2.6205913694237 0.3843610013567335 0  0.3877690806501986 0.6169237363785859 0  0.3359375 0.2578125 0  0.267578125 0.345703125 0  0.9235152932250335 0.2717186759820369 0  2.345052083333333 0.390625 0  1.726425440352581 0.8189046006664175 0  2.993641179928268 0.2412938418449006 0  2.835883702439309 0.3948832137021476 0  0.8125 0.9085008675494867 0  2.170741999630041 0.1009959998150203 0  1.89636732615298 0.5478099105385661 0  2.664684601157852 0.1046791189662002 0  0.9549359757316871 0.09790333561896306 0  3.3125 0.4149025537634407 0  1.381716104074725 0.1477376316828342 0  0.8125 0.08319859535650205 0  0.7575789771176743 0.6018061223736336 0  1.320007781059374 0.7781123630858716 0  0.6483134920634921 0.5074404761904762 0  3.754122132312668 0.107174667395713 0  1.694001902337915 0.08304062775387257 0  1.626292076062374 0.255859479551431 0  0.1110425383368033 0.5013559892496797 0  0.2112130102898548 0.5094901147101452 0  0.29931640625 0.44091796875 0  3.207158906011266 0.2403072123749265 0  1.5625 0.07781862745098043 0  1.119171163626748 0.2670263759933483 0  1.126708253337283 0.3689531271112884 0  1.214258094332375 0.4280937802409539 0  1.0625 0.07703293010752688 0  1.1875 0.07703293010752689 0  3.5625 0.07713293650793643 0  2.8125 0.07699890884847282 0  0.4106128246753247 0.0922957251082251 0  3.59375 0.40625 0  3.644897475102475 0.2471924253074262 0  0.53125 0.21875 0  3.46875 0.28125 0  2.32652298645806 0.08657286022399999 0  1.203053197157014 0.2147240999248289 0  1.296465178588695 0.248637069166957 0  0.9803619829425255 0.589289982457317 0  1.020833333333333 0.4284276788563058 0  0.9250818263782908 0.4024852945431842 0  0.8466546474358974 0.467605812494445 0  2.768773828976034 0.2606634667755991 0  1.495193379248573 0.6282208905589881 0  1.889799537857098 0.3247359059319133 0  2.928878215567772 0.4201142999499971 0  0.6145427273909005 0.897627284646574 0  2.440387502014829 0.4200087645067699 0  2.18742621005358 0.4283743375119112 0  0.09102701677793967 0.09104872753828278 0  2.223039215686275 0.2522977941176471 0  1.532057898326125 0.8994785755241699 0  3.90625 0.40625 0  3.3125 0.06991390306122454 0  1.621717325377612 0.7721493969534383 0  0.4407416596704232 0.8004137533866319 0  0.7735825853085805 0.4099719460960886 0  1.804511552499958 0.7408184885190405 0  1.90215906262294 0.7474684255654612 0  1.769035007553042 0.9054399297544584 0  0.08806450569358179 0.4027157738095238 0  1.542781339307526 0.2136611950882762 0  3.1875 0.4342434680286979 0  0.2318947826372472 0.7975197826372472 0  0.06766581632653063 0.8125 0  1.740499186813305 0.4328359809012937 0  0.6875 0.0656895065594436 0  0.2436930338541667 0.6227039155505952 0  0.3495083257586108 0.7820173026279231 0  0.4375 0.9357638888888888 0  3.934523809523809 0.1875 0  1.327888533483587 0.07616314353130534 0  1.4375 0.06417233924137339 0  0.1836020902149457 0.931618241059888 0  2.849597911819711 0.1575694549423245 0  1.322290647012503 0.5859490920064369 0  0 0.9375 0  0.0625 1 0  0.08488520408163265 0.90625 0  1.907285135260154 0.9072851352601544 0  3.919270833333333 0.08072916666666673 0  1.197895255484715 0.5251496038932713 0  3.356603893643108 0.337323053178446 0  0.5314776472372903 0.7607663394086168 0  0.4767572583078165 0.6182485947244335 0  3.04761156666873 0.4251045134660495 0  1.419639562874246 0.3337444110765333 0  1.473563120325012 0.5059490224954988 0  1.383028471511357 0.4903290095051402 0  1.774399247095356 0.6468049249189372 0  2.6875 0.5 0  0.8720427158682547 0.5522468402613318 0  0.4140625 0.296875 0  1.6875 1 0  0.9339540085299314 0.6946357832924107 0  1.089970753994 0.9218704076784999 0  0.3636427154181411 0.6983126896224529 0  1.13842906975506 0.8104378835643388 0  0.6456112293354246 0.1387840085863776 0  1.050067412334769 0.7566967523351236 0  1.617266576573942 0.6164263029070107 0  3.289788848543167 0.2675018173797452 0  3.836805555555555 0.2326388888888889 0  3.6875 0 0  3.466555215182307 0.0824632023311417 0  2.5625 0.5 0  0.06550603987731521 0.5721451437613042 0  2.030151366181526 0.4163794463712129 0  1.709917118732619 0.1642338369568616 0  0.7058889897426347 0.7777025451760291 0  1.205041537300479 0.6993905609234736 0  0.1868917396185889 0.3326442902239 0  2.34891733944972 0.1936104083361969 0  0.7057766574988986 0.226671164086076 0  2.064217354829143 0.3056805737941742 0  0.1991705040458291 0.6954795961718226 0  2.699779962883584 0.2163252213409452 0  0.6875 1 0  3.82692987537652 0.06753760124426478 0  0.3125 1 0  3.585776824798251 0.1900168695681863 0  0.8305622577614407 0.7165173764931938 0  3.433779761904762 0.1930803571428572 0  0.6943735827664399 0.4383503401360543 0  0.5671725815168438 0.4748412448207531 0  0.6356776209485275 0.3311983598939658 0  2 0.8125 0  2.175593215457547 0.1840083055106494 0  1.91820559721859 0.826944301282785 0  2.53125 0.4262751436781609 0  3.165759738109597 0.308440334380415 0  3.517857142857143 0.3794642857142857 0  0.07584180090947087 0.658845
[...]
<PointData  Scalars="f_35-0"> 
<DataArray  type="Float64"  Name="f_35-0"  format="ascii">9.5238122412411317e-08  -2.8787887986794027e+02  -2.8957917778453242e+02  -4.8766569797701629e+02  -2.9200592839627711e+02  -2.5266150592423764e+02  -2.6097374026457948e-07  -2.8962539768533770e+02  -2.8974436134413952e+02  -1.2666693551817934e+02  -1.2666699527944711e+02  -2.9313127528231865e+02  -2.9377870028089757e+02  -2.9447400503874962e+02  -2.9197680011991895e+02  -2.8316497732438575e+02  -2.8674114000224188e+02  -1.9008799413315916e+02  -1.8992988488006571e+02  -6.3333322622380805e+01  -6.3333342968078874e+01  -2.8792204857099154e+02  -2.9435309240518245e+02  -2.8299512086084752e+02  -1.5833000214128870e+02  -1.5834161618292558e+02  -2.2087652252999669e+02  -2.2206604794489849e+02  -2.8856413635371524e+02  -2.9770719882019284e+02  -9.4999958917492179e+01  -9.5000077563060401e+01  -4.0950281333966370e-08  -3.1666667278883047e+01  -3.1666665476072854e+01  -2.8984684232572027e+02  -2.9161425903077424e+02  -2.8972624794237151e+02  -2.9168207927986305e+02  -2.8778141111163615e+02  -2.8727587417841278e+02  -7.9166654387778181e+01  -2.9316356089083075e+02  -2.3868173665908876e+02  -1.7416631810944128e+02  -2.8591998674478197e+02  -2.8772585107460418e+02  -2.9265376992295950e+02  -2.9350841087309936e+02  -2.9256905610467288e+02  -2.7370612630316583e+02  -3.0001251203538732e+02  -2.9751664133316854e+02  -2.8803385827618649e+02  -2.9178781095434704e+02  -3.1666666776881961e+01  -1.1347204763236068e+02  -2.0587801833614989e+02  -2.6854674185180323e+02  -1.4381788616163561e+02  -2.9394082230625827e+02  -2.8688816687908189e+02  -2.9079953367205133e+02  -2.9117139701038866e+02  -2.8850053298656394e+02  -2.8868034398984935e+02  -2.9383324002499046e+02  -2.9488401240867438e+02  -2.9353889744080266e+02  -2.8807266635252381e+02  -2.8033410251393434e+02  -2.8654727148883075e+02  -5.5416668223449747e+01  -2.8779135222265967e+02  -2.9573129023466100e+02  -2.9726614301733332e+02  -2.9632012689039419e+02  -2.9043405687537575e+02  -2.8953689792535289e+02  -3.0361343002325498e+02  -1.8970435373228756e-07  -1.5833333103334949e+01  6.6468289059459912e-08  -1.5833333375015139e+01  -4.7499996244817680e+01  -2.9114465591501437e+02  -2.8910268756542291e+02  -2.9507428869401537e+02  -2.8641634621715173e+02  -2.8876925949036018e+02  -2.8707617879641185e+02  -2.8942196378759405e+02  -2.9142898096919311e+02  -6.2202374118663990e+01  -2.9106510309969696e+02  -1.4250197948292555e+02  -1.3458351398665582e+02  -2.9294829784938628e+02  -2.9302903763357313e+02  -1.5694356374125709e+02  -2.2043254342148398e+02  -2.3790674313489245e+02  -2.0085594126513757e+02  -1.7419566930204928e+02  -7.9166642394780752e+01  -2.5992258548175545e+02  -2.3472994128624697e+02  -2.7888780422637984e+02  -1.1083351123990717e+02  -9.6319426466062851e+01  -7.9166696581064443e+01  -1.1083331741279743e+02  -1.0291659800638944e+02  -2.8707797154662245e+02  -1.8303173349361882e+02  -2.4593347526581266e+02  -1.8472222071714395e+01  -2.9416998873939582e+02  -7.1250008021114084e+01  -2.9219296574237234e+02  -2.9352515623893800e+02  -2.9186423303101839e+02  -2.9285449411252785e+02  -1.6061602152139207e+02  -2.2304838992600355e+02  -1.8864356665553450e+02  -2.9289137030004457e+02  -4.3978623605723968e+01  -1.5833333510277130e+01  -2.9214933664961097e+02  -2.8810052686661129e+02  -2.8748582484705202e+02  -1.7415006388418050e+02  -2.8771412750872366e+02  -2.8747204851362056e+02  -2.8451358137047418e+02  -2.8388121224858975e+02  -1.2702856225815287e+02  -2.8556524619064993e+02  -2.7794742603532802e+02  -4.7500002717453938e+01  -3.9583334750344591e+01  -2.9350496301360647e+02  -2.9366598609150867e+02  -2.9202142847999119e+02  -2.6483907750827382e+02  -2.9061362303206846e+02  -2.7255098287136252e+02  -1.4249979264024171e+02  -2.0559541285915776e+02  -2.9264201733413358e+02  -2.8978825632466447e+02  -1.1894229285204013e+02  -2.4067496957585291e+02  -2.0604227944326561e+02  -2.8866623042929746e+02  -2.8931919414697796e+02  -2.9748435037970080e+02  -2.8983197211813740e+02  -2.9521053392996674e+02  -2.9643944901669761e+02  -2.8700835677200490e+02  -2.7949334991633935e+02  -2.9330844937619509e+02  -2.8861284540106851e+02  -2.9075911457889316e+02  -3.0412517976707011e+02  -3.0948342386134118e+02  -7.7470217096097429e+01  -2.9249360536854346e+02  -2.7853738896017308e+02  -2.8709741509352591e+02  -2.9028393939547914e+02  -2.9382902935176372e+02  -1.1147315764891216e+02  -2.8787163983450688e+02  -3.0022847560118896e+02  -2.9209685814210292e+02  -2.8860460905095454e+02  -2.9320997988329827e+02  -2.9342818334081687e+02  -1.9190541841181738e+02  -2.8559918333548023e+02  -2.9383987458845814e+02  -2.8767196518976704e+02  -2.8767199677227995e+02  -2.9150143759424310e+02  -2.8946285257621201e+02  -2.6025351327385954e+02  -2.5586071668552293e+02  -2.8561673880263231e+02  -2.5446429100137021e+01  -2.9017089103492907e+02  -2.9912555741414269e+02  -2.9474081659045493e+02  -2.8910937413769915e+02  -9.0003466476968029e+01  -2.9384452025080958e+02  -1.7470424446490981e+02  -2.9554447694159649e+02  -2.9399388653849985e+02  -2.9447397494647043e+02  -2.9047084400596219e+02  -2.0946583283668778e+02  -2.8862965255440787e+02  -1.2747171789254985e+02  -1.4745205432042940e+02  -2.9125161322551867e+02  -2.3226715756924571e+02  -2.9237192438132649e+02  -1.6915504305851650e+02  -2.9013575576301923e+02  -8.7083357244414444e+01  -2.8571150420065669e+02  -2.9124324689564617e+02  -2.9195363300432217e+02  -2.8801368927866702e+02  -2.9282781059932864e+02  -3.1144529063196579e+01  -2.7694739215850780e+02  -2.8160409496674470e+02  -2.9554646101016374e+02  -2.9583025033821252e+02  -2.9500300458115231e+02  -1.0042646945956577e+02  -2.8170245959447453e+02  -2.8885131932252523e+02  -2.8891683244773463e+02  -2.8831779007125346e+02  -2.8920826374562591e+02  -2.8800262975470486e+02  -5.5416660726629388e+01  -1.5042009682938607e+02  -2.9348271766494912e+02  -5.1458336952965354e+01  -4.4979652944011200e+01  -2.9316878852436656e+02  -6.7291665433221354e+01  -2.1224718161733804e+02  -2.8800340167312197e+02  -2.8711205787588807e+02  -2.9016488948146866e+02  -2.8980277325591965e+02  -2.9053480432402591e+02  -2.9118216676550821e+02  -1.5595323717729235e+02  -2.8745281169997531e+02  -2.7096217052026969e+02  -1.3567468403800385e+02  -2.9303798053366461e+02  -1.9744335858617720e+02  -2.2903525386596482e+02  -2.9288453056049343e+02  -2.2555424988701304e+02  -2.8736915931833067e+02  -1.1875000112327463e+01  -8.7083298519315775e+01  -2.8799876540085063e+02  -2.9534891701469746e+02  -2.9172773369674547e+02  -2.8973235158493804e+02  -2.9108103509102267e+02  -2.8863653299922095e+02  -2.9436963437850295e+02  -2.8315381834111167e+02  -1.0291671386225896e+02  -2.9965423715107414e+02  -3.0451554120285158e+02  -2.8360484833148382e+02  -2.9211392275658102e+02  -2.9702815784886792e+02  -2.9687288283774575e+02  -2.9491467976577536e+02  -8.2936508420211830e+00  -2.8632933937875777e+02  -2.8455668518193551e+02  -3.0243286876684652e+02  -1.4571840617843628e+02  -2.8793039068679036e+02  -3.2294080186702257e+02  -3.1687335006082486e+02  -3.1214836680332485e+02  -2.8959640188780389e+02  -1.0225694417483092e+01  -2.8859117428545397e+02  -8.1496841842773094e+01  -2.9417779583808823e+02  -2.9461565248978900e+02  -1.2063579725362855e+02  -2.8610445645759233e+02  -2.8684478406761627e+02  -2.8729696221970596e+02  -2.8921891696084344e+02  -1.6624204518018544e+02  -2.9100396598190849e+02  -2.9389763817970430e+02  -2.8742996453738141e+02  -2.9048901988072498e+02  -2.8908145718435367e+02  -2.9628930750180518e+02  -2.8893235817712775e+02  -2.9241716435662369e+02  -2.8958795200767338e+02  -2.8746638858238686e+02  -8.9960052580070212e+01  -2.0671296351591611e+01  -3.9583331193355640e+01  -6.7569660081917931e+01  -1.8204895653502533e+02  -2.9627617332879862e+02  -2.5485093251712368e+02  -2.7709922689458858e+02  -2.9235513695410009e+02  -2.8863118348706791e+02  -2.9431132754111644e+02  -2.0932027029456256e+02  -2.9208296571492639e+02  -2.4750646554791530e+02  -2.9858820902228945e+02  -1.6469596382035414e+02  -2.9212167686490199e+02  -2.1922215365473711e+01  -2.9618243783540635e+02  -5.2468266371831405e+01  -2.9130663598329238e+02  -7.1721219088793632e+01  -2.9237599180213215e+02  -2.9344405530050136e+02  -2.9268693172401413e+02  -2.9057471882425415e+02  -2.3178589356407684e+02  -2.9020000016220513e+02  -1.8598984365865425e+02  -1.0567035267736215e+02  -6.1071433867934957e+01  -2.9818128239085854e+02  -2.8966089525503349e+02  -1.3744611124856988e+02  -1.2842776305906270e+02  -1.4021570809182450e+02  -2.8776822491259117e+02  -2.8967841091443688e+02  -2.8971472553470306e+02  -2.9382835447547336e+02  -2.6966958890835917e+02  -2.6685087033337135e+02  -2.2242800533757736e+02  -1.9203637032275952e+02  -2.9319269938326664e+02  -3.1101191099791858e+01  -2.1538476873944450e+02  -1.6578784215799740e+02  -2.9318498236511459e+02  -2.0135159388160582e+02  -2.9334989221285463e+02  -2.8773359919194809e+02  -2.9379535681099827e+02  -2.3305467102592885e+02  -1.8370845527126801e+02  -2.1858713013060571e+02  -2.8475922566771590e+02  -2.8030744762648555e+02  -2.8258477782625033e+02  -2.7423415834590139e+02  -1.7457272727858259e+02  -1.6015131185144023e+02  -2.7737018641500125e+01  -1.8304209255883021e+02  -2.8815264153271198e+02  -2.8770329348364118e+02  -5.9101333119698516e+01  -1.6612517372239790e+02  -1.5172188352013345e+02  -1.3687126934557713e+02  -2.8923085815564360e+02  -2.9289570539261507e+02  -1.2096561482697122e+02  -2.9136805103723225e+02  -1.9169756443433317e+02  -1.5620995387923992e+02  -3.9745794728888768e+01  -1.8213414995736557e+02  -1.7740568031335886e+02  -2.6384610104702347e+02  -2.6821272577585216e+02  -2.7344541147159430e+02  -1.1992085230337688e+02  -1.1159821697477571e+02  -2.9371034696518842e+02  -1.1010648437019358e+02  -9.6621265920218917e+01  -3.8153772641905526e+01  -2.8833245803239225e+02  -2.9626583719605821e+02  -2.9240525321332848e+02  -2.9350920872214527e+02  -2.9313395297783791e+02  -2.9071256703031133e+02  -2.9701479173760089e+02  -2.9175635549785477e+02  -2.9199893657216819e+02  -2.1421088692273472e+02  -2.8673124641993257e+02  -2.8873099120837975e+02  -2.9073111039437305e+02  -2.9435826714698550e+02  -2.9396297247323065e+02  -1.9693160413380195e+02  -2.0091994046494213e+02  -2.9356629338506269e+02  -2.9367515207931791e+02  -2.9382977329758734e+02  -2.8716822237235863e+02  -2.8745642009418594e+02  -2.8739845327715733e+02  -2.8722888908216163e+02  -2.9257233415981131e+02  -2.8703912826273347e+02  -2.8802080219001886e+02  -2.8765037240412386e+02  -2.9276896120811568e+02  -2.9353833267388291e+02  -2.9309347111563676e+02  -2.9323318093956499e+02  -4.6062014804823534e+01  -4.3541668854308824e+01  -7.7871274741571767e+01  -3.3614419009743244e+01  -2.4022675901269099e+02  -2.4855157703269799e+02  -2.4626162803775830e+02  -9.2184400498699439e+00  -7.9166667322038320e+00  -6.6564636181931476e+01  -2.9388515649303065e+02  -2.9355961916418460e+02  -2.8790800934578755e+02  -2.8784850321193574e+02  -2.8444143571855204e+02  -2.8828391538514319e+02  -2.9095578905386577e+02  -2.8918280892868694e+02  -2.8917875078123825e+02  -1.9805316254836183e+02  -2.8225006225823103e+02  -2.8820468855977549e+02  -2.8808869150618165e+02  -2.8831759100679949e+02  -2.8734910447936591e+02  -2.0386170099052575e+02  -2.9363897124592938e+02  -2.9356833759646435e+02  -2.9487734680457345e+02  -2.8556900840132766e+02  -2.9773348409756494e+02  -2.9414402415048318e+02  -2.9518267341454435e+02  -2.9283779212193963e+02  -1.0291662416677487e+02  -1.7641323043565191e+02  -3.8465161954638276e+01  -1.6626571461567772e+02  -2.9051037821868573e+02  -2.9083607005964029e+02  -2.8765257218907806e+02  -2.8616310056660751e+02  -2.5917529193840437e+02  -2.5596235412682367e+02  -2.9148271475244775e+02  -1.3458420665851770e+02  -5.5416671762534314e+01  7.4580565687247985e-08  -7.9166665859277607e+00  -2.8963124001892925e+02  -2.8513667727727596e+02  -2.8905922196558231e+02  -2.9237638544431746e+02  -2.8637786034594762e+02  -2.9160707656195370e+02  -2.7201386007543482e+02  -2.7968099492907783e+02  -2.8671310438137590e+02  -2.9382971694322509e+02  -1.5041550923584896e+02  -2.8963488263226105e+02  -2.8954357570855876e+02  -1.5104125321912278e+02  -2.9011864060530138e+02  -3.0106492519065353e+02  -2.9028987565028160e+02  -2.8801404052103828e+02  -2.9058119071685616e+02  -2.8992774037687349e+02  -2.9034672565499687e+02  -2.8992468836765454e+02  -1.7809806667102569e+02  -1.1875008273275519e+02  -2.5405277191373295e+02  -2.6321957062175983e+02  -2.9362019981604504e+02  -2.1329857706102555e+02  -3.0589415028135875e+02  -2.6764730143567596e+02  -2.8469641259647415e+02  -2.8576923045955800e+02  -2.9259458523942203e+02  -2.9206178735940978e+02  -5.8453101774592255e+01  -2.9335635506814663e+02  -2.3003726557101655e+02  -2.9471994295341608e+02  -2.9583115880639645e+02  -1.2626085273062162e+02  -2.5002126119551296e+01  -1.9058076182165827e+01  -2.3837630426986632e+02  -2.8618291000820443e+02  -2.8821181854199108e+02  -2.9055584441096255e+02  -2.8939884401767995e+02  -9.5392491369274950e+01  -2.4105111759020579e+02  -1.1091984825043728e+02  -2.9261101976276740e+02  -2.9026225061512895e+02  -2.9170544256697730e+02  -2.9163327405887520e+02  -2.9232307126056503e+02  -2.8331713031251144e+02  -7.9125599380239507e+01  -8.1479171244898893e+01  -2.9252544613145386e+02  -1.3389686615123796e+02  -7.3987213894787118e+01  -2.9331484697407620e+02  -2.4550244228927465e+02  -3.9583334644518395e+01  -2.3749999414652326e+01  -2.9533870344946229e+02  -1.1875022304470431e+02  -7.9166666889018087e+00  -2.8449219146574319e+02  -2.8648785340791318e+02  -1.1770134401504397e-07  -2.9442636402874200e+02  -2.9210487996217017e+02  -1.0291678884867278e+02  -8.7083300056227927e+01  -2.2814563864939979e+02  -1.9778645580619661e+02  -1.3458349556599285e+02  -2.1404689121525541e+02  -1.5042081154590340e+02  -5.5416660117145284e+01  -2.8797582276879609e+02  -2.8862139167686553e+02  -2.8919315911214198e+02  -2.8153544053824805e+02  -2.7693162105736394e+02  -2.9123245529714279e+02  -8.7083382661892259e+01  -2.9111178686996448e+02  -2.9333445391211848e+02  -2.9233152538582681e+02  -2.9289618431394194e+02  -3.0328081392792018e+02  -2.9965327463092910e+02  -2.3551455970307863e-07  -2.8914076610885616e+02  -7.1249983084459870e+01  -2.9794027880135940e+02  -2.8685088080096205e+02  2.4922609950892142e-08  -7.1250016939318101e+01  -2.8678247496520413e+02  -2.3750000220155343e+01  -2.4517023268070227e+02  -2.9143534827735442e+02  -1.1909973539817537e+02  -1.0336939876114558e+02  -2.8803535329181170e+02  -2.9368989218975321e+02  -2.8769404645305292e+02  -2.8722354047564829e+02  -2.8758521354187292e+02  -2.7965423197349645e+02  -4.7559784412010110e+01  -2.9454418686490254e+02  -2.9418328417065612e+02  -2.8655188518920613e+02  -2.9378390990049724e+02  -2.9417029148721844e+02  -2.7704671384599476e+02  -2.8270746305060970e+02  -2.8917007060403313e+02  -2.8943588360874821e+02  -2.8735413169088156e+02  -2.9487223560043799e+02  -2.9852300401693611e+02  -2.9991392691455621e+02  -2.9250029149776634e+02  -2.9290585670799641e+02  -1.1345397053684209e+02  -2.9439109995811799e+02  -2.8796861505276757e+02  -2.9124502909415958e+02  -1.0500220824123095e+02  -2.9663535008967091e+02  -2.8762615172860467e+02  -2.8333661488999502e+02  -2.9356154857095692e+02  -2.9324190861311240e+02  -2.9272017359887752e+02  -2.8624052547360054e+02  -2.9317017242562309e+02  -2.8057325018549432e+02  -2.8900967940015101e+02  -2.8864496324428728e+02  -9.7631775153875225e+01  -1.2809825790587720e+02  -2.9806412338649284e+02  -2.5734736854338075e+02  -2.9334270794774750e+02  -2.8769908852844151e+02  -2.9159977075446329e+02  -2.8751785094316170e+02  -2.6187813271624282e+02  -1.6725069412149728e+02  -8.8923151524991738e+01  -2.8777692617039958e+02  -2.8778270354085396e+02  -2.8724606401839617e+02  -1.8500306740377471e+02  -2.5165080890845951e+02  -9.1505410599085664e+01  -2.8819316796049543e+02  -2.9123506687438140e+02  -1.8139063018633993e+02  -1.6834509695726942e+02  -2.9189430642356331e+02  -6.9015933116690405e+01  -2.9328623664425407e+02  -5.5434177204017665e+01  -2.8996843702226369e+02  -2.9523551244420872e+02  -2.9316661999475764e+02  -2.9011265084757810e+02  -3.0155926251651124e+02  -2.9831144399988602e+02  -2.9242875237025879e+02  -2.8816564222524357e+02  -2.8837320017886833e+02  -2.9058252875849439e+02  -2.8977681634885801e+02  -2.1192004610423851e+02  -2.0460232991440239e+02  -2.9632342853358591e+02  -2.9574219721857617e+02  -2.8751285947164416e+02  -1.8337585308639401e+01  -2.8761062161642980e+02  -2.9614327389932794e+02  -2.8830996201430253e+02  -2.8774117434966587e+02  -2.8857150451585068e+02  -2.9241283771878443e+02  -2.8894555564818205e+02  -2.8927770312669111e+02  -2.8996931458786793e+02  -2.9398133287717809e+02  -2.9042115005389843e+02  -1.1696044572951288e+02  -2.9101102284725079e+02  -2.8652086967032164e+02  -2.9130189049553110e+02  -2.8763256431299624e+02  -1.4270747623607897e+02  -1.4482423183136842e+02  -2.9765370333218578e+02  -1.7022853953927668e+02  -2.2043745311809863e+02  -2.8878759368891855e+02  -2.8948324389803395e+02  -2.2971919288852592e+02  -6.5028651156875839e+01  -2.9551195292900155e+02  -2.8919555324982224e+02  -5.2105175721580608e+01  -2.9419710642544601e+02  -2.9459597914014796e+02  -2.9705320222601756e+02  -2.9508339712504016e+02  -2.9551346574952350e+02  -2.9536772530629941e+02  -2.9500338751676645e+02  -8.4484923906715920e+01  -2.9435293464688795e+02  -2.9370612534696352e+02  -2.9007285815343226e+02  -2.2711354957862918e+02  -1.3025330050043408e+02  -2.9151327998406742e+02  -2.9169156441745122e+02  -2.9857808641394388e+02  -2.8856504218898925e+02  -2.8839158634074488e+02  -2.8665620162952354e+02  -2.8551679077597856e+02  -2.9404604721848068e+02  -2.9072151073218845e+02  -2.9337391126104922e+02  -6.5877979619234111e+01  -2.8892624032493910e+02  -2.8970491798424121e+02  -2.9171908148551353e+02  -2.0827795101875475e+02  -2.4323414753523526e+01  -2.8907262213006356e+02  -1.4451424557535191e+02  -2.9527432448661449e+02  -2.9009902530797166e+02  -2.9447661162074337e+02  -2.8853175520783577e+02  -1.1403769822331828e+01  -1.4951502132258040e+02  -1.5307495297256418e+01  -2.5057194524893666e+02  -2.7834188040480421e+02  -2.4990050281379204e+01  -3.3231355298783761e+01  -3.7517600614835743e+01  -2.9006202122693958e+02  -2.9941600505836840e+02  -2.9105901539537712e+02  -2.7741734816471876e+02  -2.9209949292755749e+02  -2.8768656189194007e+02  -2.8900569293741461e+02  -2.9004130148357444e+02  -2.6802743191333093e+02  -1.0344185107256136e+02  -8.6300830438473795e+01  -2.8836029404227821e+02  -2.3402009513830714e+02  -2.8916614118766114e+02  -2.8873257235543491e+02  -2.8865269762579089e+02  -2.9088646946679131e+02  -2.8807803076410892e+02  -9.1041712962124080e+01  -2.8707536139976901e+02  -2.7111998225711187e+02  -4.4801629313885392e+01  -1.2081037238082138e+02  -2.9344715371245815e+02  -2.7134523004701791e+01  -2.8549170669364952e+02  -1.9034721416763867e+02  -1.5457577633592223e+02  -2.3844144141498631e+02  -2.8422386808084855e+02  -2.9556725976418221e+02  -2.8876104353922153e+02  -2.9100220888249703e+02  -2.9147736909061064e+02  -1.7550046091101223e+02  -2.8556201341684897e+02  -2.9021522523627357e+02  -2.8979206947389247e+02  -2.8434266548816538e+02  -3.0319226184567583e+02  -3.0668022030658676e+02  -2.9287301822893392e+02  -9.4098467618494055e+01  -9.9369549125545845e+01  -1.0701149599230853e+02  -2.8854658432722118e+02  -2.8929186993982097e+02  -2.9345452516522852e+02  -2.0781693060822084e+02  -2.8486375265101213e+02  -2.8644831034072348e+02  -1.7019312127102054e+02  -2.8946784354933152e+02  -8.3245762208494625e+01  -1.2750534947499453e+02  -2.9254100098960180e+02  -2.9355062658708141e+02  -2.1693704626316494e+02  -2.8922426568227132e+02  -2.9009624348358352e+02  -2.9088410852315138e+02  -2.8792506802323538e+02  -1.6298085753264928e+02  -3.0982760213995471e+02  -2.9312740085930096e+02  -2.937055133873