<?xml version="1.0"?>
<VTKFile type="UnstructuredGrid"  version="0.1"  >
<UnstructuredGrid>
<Piece  NumberOfPoints="2743" NumberOfCells="5270">
<Points>
<DataArray  type="Float64"  NumberOfComponents="3"  format="ascii">-0.12 0.1 0  -0.12 0 0  -0.01986476715483886 0 0  -0.01986476715483886 0.002321858282504599 0  -0.01879385241571817 0.006840402866513377 0  -0.01670975622825873 0.01099017956141612 0  -0.01372483275737467 0.01454747283146098 0  -0.009999999999999995 0.01732050807568877 0  -0.005736064654221804 0.01915979024630978 0  -0.001162896578209515 0.01996616316542536 0  0.003472963553338608 0.01969615506024416 0  0.007921595320783138 0.01836432213760548 0  0.01194317183405572 0.01604246385510088 0  0.01532088886237956 0.01285575219373078 0  0.01787265280646825 0.008975983604009244 0  0.01946089741159648 0.004612317414848803 0  0.02 0 0  0.12 0 0  0.12 0.1 0  0 0.1 0  0.06 0.1 0  -0.06 0.1 0  0.12 0.05 0  0.06999999999999999 0 0  -0.12 0.05 0  -0.06993238357741943 0 0  0.06954545454545454 0.05045454545454546 0  -0.05256818197129183 0.04876858210896794 0  0.03 0.06852793994995832 0  -0.01060230953534651 0.06012868531377026 0  -0.08590602075287224 0.07008722490344668 0  -0.08700383268980955 0.03297312682365156 0  0.09 0.1 0  0.09454951298701297 0.02545048701298702 0  0.04421726329698947 0.02908215157121827 0  -0.03 0.1 0  -0.09 0.1 0  0.03 0.1 0  0.094941534914361 0.0689649209486166 0  -0.045 0.07602120282224097 0  0.0137000972673793 0.04576151173676769 0  -0.04489857536612915 0 0  -0.02795527007175781 0.03755044438085961 0  -0.06241371758055736 0.02479853554667227 0  0.06931814492325854 0.02522317739079102 0  0.0562106357694593 0.07357769546517523 0  -0.09496619178870971 0 0  0.12 0.025 0  0.095 0 0  -0.12 0.025 0  -0.12 0.07500000000000001 0  0.12 0.07500000000000001 0  0.045 0 0  -0.0228302666921874 0.07883391093803507 0  0.09815763663419913 0.04717696422689629 0  0.04642316516164364 0.05216224004895101 0  0.015 0.08426396997497916 0  0.07685335020605615 0.08199579006851358 0  -0.03212624651891543 0.05871373573766032 0  -0.06454151582324234 0.06677080404579981 0  -0.007428983740834363 0.03973215840314246 0  -0.04143162460864844 0.02103341629232999 0  -0.07788632568368571 0.05127672197436213 0  -0.09902623975019198 0.05337871787903269 0  -0.075 0.1 0  -0.1014173577311382 0.0832008292773658 0  0.105 0.1 0  0.008793975861786027 0.06520032249375621 0  -0.003877486809385651 0.08128666365361911 0  0.04056005001669608 0.08426396997497916 0  -0.07890609788649815 0.0162597993618741 0  -0.1010699031813867 0.01892186545593956 0  0.08267954418645374 0.03858457665398622 0  0.08249999999999999 0.01250797385719048 0  0.1070573481575616 0.01294265184243836 0  -0.1072273189424094 0.0375 0  0.05487128127324764 0.0148172916808382 0  -0.07306292723448589 0.08234923187849305 0  0.02604316659281994 0.02760414390118441 0  0.03422315740010771 0.01291039266157378 0  0.02953764603397802 0.05164069645856708 0  0.05711184749668567 0.0394951990120913 0  0.1048403709991175 0.08290422259947053 0  0.07836733468041428 0.06502779237175893 0  -0.015 0.1 0  0.107641636468974 0.05970823073603768 0  0.12 0.03750000000000001 0  -0.07203199631147464 0.0369378911801824 0  -0.05383214135241159 0.01227496304049853 0  -0.12 0.0625 0  -0.105 0.1 0  0.075 0.1 0  0.015 0.1 0  -0.045 0.1 0  0.045 0.1 0  -0.10518488525811 0.06789183644845204 0  -0.04335959578005873 0.03636269925572742 0  -0.05884641539443965 0.08000585119468683 0  -0.02074261661302542 0.04996461834162433 0  -0.02653136512200803 0.0222624586885067 0  -0.08714978711530966 0.08578346506967012 0  -0.03506452979410112 0.08648708658184591 0  -0.04620947545617006 0.0616799095273325 0  0.0006562636529589983 0.05143519384945657 0  0.1057204605480501 0.03475816363918364 0  0.09074280792825767 0.08565566471894244 0  0.005667439598789157 0.03387418246945268 0  -0.03238167126048401 0 0  0.0383080886578613 0.04129238651963005 0  0.08505369180647195 0.05254495235246789 0  -0.1074830958943549 0 0  -0.12 0.0125 0  0.05414542183412842 0.08735675763730583 0  0.04308500944676981 0.07115822817126308 0  0.0649349230807125 0.06320229510900416 0  -0.05637247339858926 0.03632415216907382 0  -0.01542434356580282 0.02929607297537314 0  0.02778002500834804 0.08142901444438948 0  -0.06542774243586742 0.04799884169932159 0  -0.06661544991358234 0.0127173865239021 0  0.08192808295131557 0.02597463862592918 0  0.07006960615839669 0.03783311541884806 0  0.06988230421815755 0.01261762329223161 0  -0.12 0.08750000000000001 0  -0.08244928768306457 0 0  -0.05741547947177429 0 0  -0.03984291085584598 0.04859364585838993 0  0.08249999999999999 0 0  0.12 0.0625 0  -0.12 0.03750000000000001 0  0.12 0.0125 0  0.0325 0 0  0.0575 0 0  0.1075 0 0  0.12 0.08750000000000001 0  0.02042070411167864 0.06034025931465875 0  0.05702213417260474 0.02706267745085339 0  0.0675 0.09013045458016318 0  0.09478643990600856 0.0122865785926504 0  -0.04904630236735645 0.08801060141112049 0  0.02613192868361687 0.0398635327923046 0  -0.09569137037305205 0.04159910065917647 0  0.05140611894455763 0.0628291923813368 0  0.1085809652542695 0.07158881227331852 0  0.05796589338150855 0.05105903259253412 0  0.03841143349411784 0.06054564265388553 0  -0.02947166435407259 0.01113520957350828 0  -0.1102478054683027 0.05625 0  -0.09068017366517905 0.01182794374687028 0  -0.01434600857542353 0.08772663538203848 0  -0.03362945317777148 0.07517582904977035 0  -0.01235387050651601 0.0723330924144738 0  -0.02307888867457602 0.06674121501662693 0  -0.002185408069912574 0.06756456274836646 0  0.0678638500046832 0.07452078468888843 0  0.08597040057425252 0.07558162872540394 0  0.09674588960513322 0.05809991882890109 0  0.1094709655577269 0.04555436451412986 0  0.09473770132491341 0.03658207429318428 0  -0.06454868296360231 0.08970720561340952 0  0.1088432154030167 0.02400081163981114 0  -0.07748216799376378 0.02726807518039781 0  0.0075 0.09213198498748959 0  0.01849963805527029 0.07258270415679953 0  0.0225 0.09213198498748959 0  -0.07477959581424944 0.07129038985899076 0  -0.05389685222033951 0.06954987308797576 0  -0.05952130701477828 0.05712689877479761 0  -0.09084078800149091 0.02274804774342801 0  -0.09837161430440977 0.03085986409994825 0  -0.05131093786741553 0.0263250162658456 0  0.01635618606258252 0.03530907600454269 0  -0.03460613037873773 0.02922068783924693 0  -0.04043226315035484 0.01006625299372829 0  0.08175024910257063 0.09159737271826002 0  -0.09494035380298299 0.06367583527464522 0  -0.0886934906578859 0.04994210372431981 0  -0.02490130542947547 0.09038352188878838 0  0.04417108737523257 0.01793664269923905 0  -0.003940932065510782 0.02996170313966536 0  -0.01783357510351885 0.03997209276407525 0  -0.009556322084365085 0.04984630266759408 0  -0.09566755421412014 0.074271403467777 0  0.0355203970594753 0.02354533265972011 0  0.006555555071563847 0.07647100871020274 0  -0.07937685857812513 0.06175606142440594 0  -0.082228823034201 0.04201720146426499 0  -0.06983948840172999 0.05776693996935201 0  -0.09555085505908593 0.09149315155487603 0  -0.1098516392886323 0.0771584086134595 0  0.0975 0.1 0  0.01159727503865655 0.05556931308228881 0  -0.1115659278883601 0.01875 0  -0.1012246438415323 0.008426566493923617 0  0.01474516449273796 0.0255393740673827 0  0.08779480154260712 0.06219573447921576 0  -0.1125 0.1 0  -0.109677715301956 0.0898066291811736 0  0.1125 0.1 0  -0.1076436806656361 0.02771938223489072 0  -0.1109003748179492 0.009075404417277109 0  -0.03013785075543634 0.04712089514258909 0  -0.004952464847218618 0.0912677883600678 0  -0.1065795284902037 0.04722264329381553 0  0.04842831953664987 0.07898377417315099 0  0.03252098192319938 0.09028046125939154 0  0.02476218534733019 0.01628634550873906 0  0.04791904264346727 0.04258131505029045 0  0.06144185941573184 0.08140605316446399 0  0.1108170457022867 0.09049022742137205 0  -0.08249999999999999 0.1 0  -0.07849279483093181 0.09068500987040669 0  0.09901040145429967 0.0905247702494426 0  -0.07619083563024201 0.007152163970009891 0  -0.03784209605914159 0.06649148111429766 0  0.03557615988040569 0.07650767001919569 0  0.03302905362294855 0.03368357951329398 0  0.001528049998133968 0.0421884697145129 0  -0.06677219502603519 0.0755735126223121 0  -0.07078299185927128 0.02093806600642789 0  0.07624698700554428 0.01898789084580359 0  0.0425071772133816 0.008872273040118464 0  0.06222675218673776 0.01983691994242202 0  0.05125 0.006533019494560529 0  -0.08112674022156063 0.07793832028046994 0  0.0894563302875119 0.04461415956113914 0  0.07600555403016987 0.04440122631805228 0  0.1011730931788228 0.01956623203424818 0  0.08875791189114002 0.01876216216110217 0  0.07625 0.006253986928595243 0  0.10125 0.00625378014893175 0  0.06159289116562519 0.008367939956509781 0  0.1133219866490167 0.006678013350983326 0  0.12 0.03125 0  0.08875 0 0  0.09447377394606553 0.07772073910541109 0  0.1125347363168419 0.07917181005820358 0  -0.0360489221788708 0.04088174671649498 0  0.07238835401788725 0.0586903785336876 0  0.07770534388963661 0.0735202678075017 0  -0.02352204721963873 0.05812853133009549 0  0.02771469012026706 0.007208889738796465 0  0.06289457418076626 0.0332368862735679 0  0.02997504279709136 0.060078672135782 0  0.0379740367310045 0.0521076669766706 0  0.02209772318747019 0.04741115745969623 0  -0.0375 0.1 0  -0.04152152214341864 0.09214855581173653 0  0.07670804270236463 0.03261307516989712 0  0.08846339346732941 0.03112076208171376 0  0.06426407185079112 0.0439136177978413 0  0.05037140838704721 0.03465168226171754 0  -0.1136136594712047 0.0428084044537857 0  -0.113526383098718 0.06949936267301912 0  -0.002312773411525084 0.05922711625796673 0  0.04612867834591947 0.09118715625326625 0  0.0525 0.1 0  -0.0525 0.1 0  -0.05642436013397981 0.09226832717651308 0  0.12 0.01875 0  0.0375 0.1 0  -0.1021974954105155 0.06059626541185022 0  0.04989633308677061 0.02348577305550612 0  -0.12 0.03125 0  0.003928287502683688 0.08448841352572942 0  0.1030125400079595 0.05335714910633224 0  0.1025673057510353 0.0660868
[...]
<PointData  Scalars="f_22"> 
<DataArray  type="Float64"  Name="f_22"  format="ascii">4.9518303180706432e+01  6.6935197527309938e+01  1.0000000000000000e+02  1.0000000000000000e+02  1.0000000000000000e+02  1.0000000000000000e+02  1.0000000000000000e+02  1.0000000000000001e+02  1.0000000000000000e+02  1.0000000000000000e+02  1.0000000000000000e+02  1.0000000000000000e+02  1.0000000000000000e+02  1.0000000000000000e+02  1.0000000000000000e+02  1.0000000000000000e+02  9.9999999999999986e+01  6.6937528316678851e+01  4.9518995293326064e+01  5.4724992672367208e+01  5.1900582612445824e+01  5.1898998493553307e+01  6.1927817572036133e+01  7.2673190165685170e+01  6.1926069791935838e+01  7.2688243974597512e+01  6.5536087708869431e+01  6.8815627739689376e+01  6.5192563036138978e+01  7.0457827056556738e+01  5.8850651044933016e+01  6.6668943417010112e+01  5.0179083949676304e+01  6.6841782111629755e+01  7.6845023014450220e+01  5.3842521815441422e+01  5.0177176050035321e+01  5.3842779838894522e+01  5.8559277358144350e+01  6.0942340158830454e+01  7.7463128157815135e+01  8.1478866623160471e+01  7.8731962752847508e+01  7.2479916622195020e+01  7.0796210818752598e+01  6.0590070514810506e+01  6.8293989074987181e+01  6.5626974571858597e+01  6.8294734588088076e+01  6.5624094285324588e+01  5.6379038531218484e+01  5.6379487277333759e+01  8.1432931418358450e+01  6.1819530931925136e+01  6.3179044458087510e+01  6.8862117758759226e+01  6.0164912673682956e+01  5.6228646734959632e+01  6.8782971634733272e+01  6.1747334210989962e+01  8.1820311264684392e+01  8.0140133597409815e+01  6.4237897036943338e+01  6.1892192117153215e+01  5.0942776807758619e+01  5.4566616972118581e+01  4.9688046314955244e+01  6.8223316440419609e+01  6.1606583156568178e+01  5.8523776839453546e+01  6.9966382743820617e+01  6.6905188542270636e+01  6.6272419432525766e+01  6.9636657672030850e+01  6.6931109464530294e+01  6.4323366393835826e+01  7.6254777217273329e+01  5.6405078097223111e+01  8.4228090438465131e+01  8.5801286831956105e+01  7.2092686559342525e+01  7.0517296746924671e+01  5.4543067693429968e+01  6.0793801895475895e+01  5.4488551587542737e+01  6.0158531121552606e+01  6.4045361266087923e+01  6.8182594345981997e+01  7.6937709706474237e+01  5.9346515405492376e+01  4.9687533940388569e+01  5.0944086088155480e+01  5.4489934076517848e+01  5.2919879369395488e+01  5.2920678321927440e+01  5.8362553790948645e+01  7.4820844670683968e+01  5.8313235763358946e+01  7.4285684614103886e+01  8.6624896976364781e+01  5.4486918555919161e+01  5.8177432791404087e+01  6.5679013460677425e+01  7.5200271497690125e+01  6.4802893594001773e+01  5.4336632769686155e+01  8.6088615802945625e+01  8.8758538729625414e+01  7.4420737781400021e+01  6.3171202079455419e+01  6.7271347973532187e+01  6.6601223973434585e+01  5.6379757486722887e+01  6.2816367812937564e+01  6.2730426609422395e+01  7.1497400330719856e+01  8.7262150305833245e+01  6.0514047886929646e+01  6.6778204896494984e+01  7.2979665692809490e+01  6.8375060437094561e+01  6.8346402655811289e+01  7.2179810902585871e+01  5.3084880988729722e+01  7.0062383205043972e+01  7.6374128742013696e+01  7.1362531723003684e+01  7.0057463288764040e+01  5.9348019344146159e+01  6.4043790084478260e+01  6.6606467400004533e+01  8.8691759782201174e+01  7.6346067969679353e+01  6.7272250626930528e+01  5.3086117749546254e+01  6.9552483142763137e+01  7.3470096105328466e+01  5.4474305948680829e+01  6.7962154782649890e+01  5.6578497838438601e+01  7.8126795045575633e+01  6.4378029567737158e+01  6.4585478896320652e+01  5.7365316572028640e+01  6.7188405776622631e+01  6.7190332036636448e+01  8.9246842541793498e+01  6.0818881274545703e+01  6.8469539849254886e+01  5.8894024295391553e+01  6.2340900448916791e+01  6.4993708763757809e+01  6.6578059347035548e+01  6.7333720789530503e+01  5.9144037656373939e+01  5.7389407542683848e+01  6.1016209743832057e+01  6.2910357645038317e+01  6.5294076067405513e+01  5.4820749857683545e+01  6.5970910434504077e+01  6.8912839759131728e+01  5.7456887768370031e+01  6.4551193013910151e+01  5.6953132317534767e+01  5.9432136201227117e+01  6.2117892576337567e+01  6.5192451237955325e+01  6.7544303644453976e+01  6.5820370598196902e+01  7.5287002302845238e+01  8.3075923344707789e+01  8.0159861687157147e+01  8.2963260808978490e+01  5.3100738926004837e+01  5.9843668907082410e+01  6.3384636567069414e+01  5.7451224811818207e+01  7.9755164595560572e+01  8.9401492255175526e+01  7.9998123957651273e+01  7.5681482925213388e+01  5.7173558728016530e+01  8.1891931608753168e+01  6.3484599216954450e+01  6.1538102164975328e+01  6.5680427319028112e+01  6.3620413827319886e+01  5.2460751153627150e+01  5.5935385125502613e+01  4.9895550504911775e+01  7.2578005439634083e+01  6.6335467973188813e+01  6.7535974142397123e+01  9.0233368373559870e+01  6.0691594705277836e+01  4.9560395147365298e+01  5.2536337752715390e+01  4.9561179498234559e+01  6.5619293701112184e+01  6.6933328108205629e+01  7.3913348943840859e+01  5.7809312610689837e+01  6.2714764149355076e+01  5.9616783735011516e+01  5.7031150469515588e+01  9.0515158064946604e+01  7.1682779692359887e+01  5.7646160330025211e+01  5.2327175058599757e+01  5.0530689752109922e+01  5.3563852940330584e+01  5.2611957549000536e+01  7.1105863978157970e+01  6.5078079876083876e+01  6.1678814008558412e+01  7.8913609836685310e+01  8.0591763347160438e+01  5.8933755779041469e+01  7.1087886261365455e+01  7.0198625969008617e+01  8.2094771282403428e+01  7.3319744374431750e+01  7.8453255166664164e+01  5.7074550686297123e+01  6.4380581257829604e+01  6.6019424036856151e+01  6.6845426650098517e+01  6.8206058138216378e+01  7.1132625801630823e+01  6.7606222425586296e+01  7.4728609820281505e+01  6.6936876491669253e+01  6.4906342439631956e+01  6.9080182096433660e+01  5.6328045917307534e+01  5.5368284655235506e+01  7.5143650591708223e+01  6.3071250821395637e+01  5.8564211266720598e+01  7.0173289937840806e+01  9.1547195537186468e+01  7.0730069051369867e+01  6.8532288471799461e+01  7.0408609622420656e+01  7.5301639458213316e+01  5.3404300076604557e+01  5.5771139933441347e+01  6.8201484139699147e+01  6.6772192606762857e+01  6.7997384733129920e+01  7.3428222923716348e+01  6.3272315330049416e+01  5.7777515052824533e+01  7.1195009333161835e+01  5.5754647504848030e+01  5.2412092495307753e+01  5.2411435006230207e+01  5.4623842814663959e+01  6.6194202703792968e+01  5.3405670894458872e+01  6.0169535420038734e+01  7.6395906499465013e+01  6.4905091706396661e+01  6.0363002025039826e+01  6.1685837481900442e+01  5.8890454053992492e+01  6.0689582625793669e+01  7.4381869097380957e+01  7.5146551966471691e+01  6.0701891325293566e+01  6.9041989535840415e+01  6.4116195500754031e+01  8.4556461111131398e+01  6.1833155918746684e+01  6.6240049227053888e+01  6.7392663429024168e+01  7.0131766560731805e+01  7.7583477326863601e+01  7.1651705815176001e+01  5.6656507876556191e+01  5.7075148392882156e+01  8.3739490802632346e+01  6.9658224476754228e+01  7.9361434513172995e+01  7.4297458026814809e+01  7.9838667429981953e+01  6.1645814040988505e+01  6.1400565360360218e+01  5.4209517965180005e+01  5.7392950873925443e+01  5.4210849178215540e+01  5.4664025535333309e+01  5.1404675683613114e+01  5.1405082092417103e+01  5.0531595527982425e+01  4.9894594342306490e+01  5.4663596462756473e+01  5.6499698029900109e+01  5.2431508275360081e+01  9.1476864857471099e+01  9.2134126403742627e+01  7.0986263536119822e+01  6.6150934282312292e+01  6.4577259863532575e+01  5.3236550615021933e+01  6.9299786299416809e+01  5.7907842982650600e+01  5.8781658710600176e+01  5.1333180892007178e+01  6.8419946670871056e+01  6.8765777712108445e+01  6.5729363424210419e+01  6.3854941944493788e+01  5.4804916332072253e+01  5.4197674006894154e+01  5.6412640891246198e+01  6.2560630079754276e+01  5.6160865106910272e+01  5.9608885858384774e+01  6.0050326890153130e+01  6.9081656229099849e+01  5.9988242279481582e+01  6.1524292670598982e+01  6.3448540137809736e+01  7.2031239919700795e+01  5.5027829022854291e+01  5.2194238480806845e+01  7.2805537204004935e+01  9.2004081155608688e+01  8.1168271220887135e+01  5.4279790642951312e+01  5.6874529558324809e+01  7.6083739609495041e+01  7.6847437142506010e+01  5.2581111809857703e+01  7.5957470854094723e+01  6.4790361412021909e+01  6.0360786928323947e+01  6.6381211292381067e+01  6.2070456633919846e+01  6.2794102209249537e+01  6.0794201714618517e+01  6.9033658485356554e+01  6.7950500120789769e+01  6.6130816484949477e+01  9.2330134503906237e+01  6.4965535861364074e+01  6.4469349307681142e+01  6.8956553323014546e+01  5.4346945344351283e+01  6.6954279722254498e+01  6.4275370923025633e+01  5.6471243386204186e+01  7.4513117641584827e+01  6.2048185728636405e+01  5.9387471489140999e+01  5.6328702189028867e+01  6.3342036069872314e+01  9.2920624693471154e+01  6.8705636796092861e+01  5.4560108933029127e+01  7.4643054144057743e+01  7.1521419024575167e+01  6.1062628350879088e+01  5.9344678202941083e+01  6.4037082650102363e+01  6.6652154497416817e+01  7.7988425137629903e+01  6.5333795017284032e+01  6.4813833600903166e+01  7.8924140082799425e+01  7.8925571760361450e+01  8.4908339301638634e+01  8.4710371578935082e+01  8.5886279176587763e+01  6.6277803458879575e+01  6.2457230783489123e+01  6.3983375296172618e+01  5.6685974789070286e+01  7.2903078396645498e+01  6.3566598283579978e+01  5.8445354477235639e+01  5.1334476967755812e+01  6.5050851395172998e+01  8.3771634460841113e+01  6.9152488139039036e+01  7.2645108436280097e+01  6.3315730267851556e+01  6.1594061663374099e+01  5.9513116582262661e+01  6.0601627139270093e+01  6.2615706945612395e+01  9.3720557242611235e+01  5.5414067552411190e+01  7.2570732123513579e+01  6.5569173114991955e+01  8.5688650236911812e+01  8.6849260373050527e+01  7.8636978670987773e+01  6.5101228601447488e+01  6.7261703689225300e+01  6.7018535248550478e+01  6.6852256889886476e+01  7.2194319605861935e+01  7.2952800252080749e+01  8.7086748104666881e+01  7.4888269284591260e+01  7.1389549891464597e+01  5.4339068987374475e+01  5.7869265856553632e+01  5.8760227789159295e+01  5.6822393430114751e+01  5.4438949033767017e+01  6.5712336548666713e+01  6.9514191743607142e+01  6.9390725807769769e+01  7.7396355050265058e+01  7.0796236528408130e+01  7.1855123590335793e+01  7.2556378746777924e+01  7.1025567078394431e+01  6.7355857025957548e+01  6.9582329412699053e+01  7.0857044361667690e+01  6.8586221562231742e+01  6.7642081620933567e+01  6.2870836686070398e+01  6.5429354664339954e+01  8.4777307752905969e+01  6.7695811426876617e+01  7.1258970230924518e+01  7.8715406867060182e+01  6.9119289056097003e+01  5.7907202905984775e+01  9.3616283963195286e+01  6.6854130184640169e+01  6.6190031360134526e+01  5.4769972801893772e+01  6.7021108396088849e+01  7.4357422120513519e+01  7.1248504646928808e+01  7.8683750070928895e+01  6.3047474778037326e+01  6.0690337961830785e+01  6.7694283040255087e+01  5.4768874212546407e+01  6.3048559110929560e+01  5.9228075114224801e+01  5.8177397760948821e+01  6.7433768103137893e+01  7.2173866446591759e+01  7.5051712978968709e+01  7.1878191412185217e+01  5.7553410603589498e+01  6.9952070959421377e+01  5.2698216719178603e+01  6.7184954521585382e+01  8.5483459545873359e+01  6.7601159568707715e+01  6.3703226931513804e+01  6.3012019351252150e+01  6.7592006694460423e+01  5.9867518000251771e+01  5.9561846852320926e+01  6.7321629195337721e+01  6.8258750297277629e+01  5.4479494652639538e+01  8.0893838203691473e+01  6.3144158035660013e+01  6.4751594361998229e+01  6.6241610728286716e+01  6.9251084400623839e+01  6.5563255392312286e+01  6.7260875758730776e+01  6.0129421900563266e+01  7.8881650449408014e+01  6.6401438985715004e+01  6.7203292976833680e+01  6.4217920455955181e+01  7.7812492222482902e+01  6.2663379902205648e+01  5.5968624702128508e+01  5.7186472196333604e+01  6.6288883151730616e+01  6.1247741928018037e+01  7.3869921809077979e+01  6.7426329385887485e+01  6.7244575356891815e+01  5.2866688290311600e+01  5.1721079599230386e+01  6.6856170416056401e+01  7.8068381502830249e+01  6.5201090494051144e+01  6.3751083445882237e+01  6.1638696583807338e+01  5.7742363612932621e+01  6.5633898836158536e+01  6.3461614515941143e+01  9.3326778650130393e+01  9.3801049214451268e+01  6.7541786201671826e+01  6.6372671548602810e+01  6.6593160190392254e+01  6.8721255913715140e+01  6.5343902970352303e+01  6.1644907650642587e+01  6.6637647452145757e+01  5.9336067202861841e+01  6.6354654308619416e+01  7.4482997474932432e+01  6.8972986358840231e+01  5.7825316207254268e+01  5.3948142090958818e+01  6.2366482026761105e+01  6.2790155834158455e+01  8.1136014374992129e+01  6.4138512766564830e+01  6.1801482045429211e+01  6.9482851156884522e+01  7.2556956672933254e+01  8.8238507737575162e+01  6.9784074887927900e+01  5.3066286911629000e+01  5.5094185524719521e+01  7.6515222262835749e+01  5.0916461217848521e+01  5.1110167901748191e+01  5.1037569111854594e+01  6.6541160082345030e+01  5.8129927816685523e+01  5.8704935733204948e+01  6.0537053181435709e+01  7.4569900818706486e+01  6.3907350862116274e+01  5.0857032939029907e+01  5.6647619782299749e+01  5.5826932409697150e+01  5.7711942723750042e+01  8.2537516516402718e+01  7.8352851167026103e+01  6.4826172813199776e+01  6.4308893001447700e+01  6.6954082542501425e+01  6.8644856018602795e+01  5.9357603505164711e+01  6.7851736994911633e+01  5.2471795029901116e+01  8.1619060366863067e+01  5.9831672577417343e+01  8.1108845060792248e+01  6.6686328693058940e+01  6.8741208067150012e+01  8.8080164916912011e+01  7.4166084874387749e+01  5.6456119978058524e+01  6.9864876327811245e+01  5.9680799252876184e+01  6.0224999079042604e+01  7.6560261995120058e+01  8.5447315451121668e+01  8.1658289924749425e+01  8.2876442785224825e+01  5.1033850282575138e+01  6.2134383702591691e+01  7.0611872564970383e+01  6.6209783128996023e+01  6.1794326127679440e+01  5.6135641010590575e+01  5.5606090100368391e+01  5.5251279379590898e+01  7.7600109629894163e+01  6.4371871647278141e+01  5.5548971090369051e+01  7.7286458553749199e+01  6.0249715258586733e+01  5.3976291982806828e+01  6.5257142349322891e+01  6.3502227093822214e+01  5.8889943341677380e+01  5.6287614005563718e+01  5.5797826233850998e+01  5.5894125537835976e+01  5.6026130274951868e+01  7.5610606662361647e+01  7.2689046727127362e+01  8.0860834004652929e+01  5.3555495254008505e+01  6.9226778910879830e+01  6.2355443128660767e+01  6.0902736366811205e+01  6.5481375668198780e+01  8.7726497798301310e+01  5.2854834874328731e+01  5.4480496413843078e+01  8.3207003817468120e+01  7.3064210065124414e+01  5.7787906876129526e+01  5.8535725487772382e+01  5.5755878921808566e+01  6.0225062603484602e+01  6.0436161305351092e+01  6.2921004812381980e+01  5.2777825760054817e+01  6.5910450155666979e+01  6.7180602290192397e+01  5.8521671374442882e+01  7.6457565133104140e+01  6.6776462209513468e+01  6.6602737401806493e+01  6.8006495447444436e+01  6.7421199207573252e+01  5.9612568574760139e+01  5.5673641950444818e+01  6.9577823517082493e+01  5.9102113242312456e+01  8.1397113272200613e+01  6.7952450265568132e+01  7.7034637926642858e+01  5.9309652106006567e+01  5.7094409762635401e+01  8.5387686850006759e+01  5.8630331267788350e+01  7.2983001544890485e+01  8.7244761823638086e+01  9.4182265191123363e+01  8.0772688160532638e+01  5.6123143485639268e+01  6.6275605751921688e+01  6.2044973301522830e+01  6.4332098761840285e+01  6.3091909350462842e+01  5.3041122771165277e+01  5.3542072627891585e+01  5.0025846623285702e+01  5.1538020071379933e+01  6.6752718263940963e+01  6.1016257159363967e+01  5.4218211800940239e+01  5.2082641296770383e+01  7.0181040930266462e+01  8.8628500710131050e+01  8.3013326551989664e+01  8.7181320387239623e+01  6.3449680205158074e+01  5.8621560756651625e+01  9.4790878689544613e+01  9.4377533015026401e+01  7.5595051855523536e+01  5.4709407171573382e+01  7.0557832047582181e+01  7.4996168770052691e+01  6.4083155124577289e+01  6.7828611401597698e+01  5.4892420076839052e+01  5.4126150672879419e+01  9.4341592949961097e+01  5.9267765208450278e+01  5.5723914908175438e+01  6.5196670934326548e+01  5.4527205321029534e+01  6.9594511844680284e+01  5.6397175592514877e+01  6.0665117832285631e+01  8.4022986663985591e+01  7.6288553723607322e+01  7.3279786300549389e+01  6.2568703042843893e+01  7.0310197324365419e+01  5.2434609968834948e+01  6.8087258807466753e+01  6.4207792418546020e+01  4.9529240027177536e+01  5.1069266817091432e+01  6.5193052814326762e+01  5.7898773885998210e+01  6.0383790700675384e+01  5.8012374429772301e+01  6.5814166584073661e+01  6.7090068779431974e+01  6.7176605115144213e+01  7.3045181608604793e+01  7.5236951292596345e+01  7.0341857673146052e+01  6.0435759932313474e+01  5.2891494275372338e+01  6.6905473759199594e+01  6.5211466896699903e+01  5.1347837143231693e+01  8.3534778449033666e+01  9.4166377320748950e+01  6.8088492821350968e+01  5.3582729970365428e+01  9.0301783186336905e+01  5.7830795895915003e+01  7.7632843411503558e+01  9.5024059894032149e+01  7.3131032574290288e+01  8.3613156016677593e+01  6.1339769811291944e+01  6.2600135330745694e+01  6.7515403632852184e+01  5.8768207236972891e+01  7.0553647053862861e+01  7.0276413797771937e+01  6.1194706388194668e+01  5.8939098131186398e+01  6.0002092921397058e+01  5.9930388388601273e+01  5.8403082639010584e+01  7.5979022284056327e+01  7.1901767953356114e+01  6.2019615580115065e+01  7.4461020030473662e+01  8.9014638296687636e+01  7.0718118203001509e+01  9.5568356593856478e+01  6.6290017453637546e+01  7.1886992827146685e+01  7.0418203378522577e+01  7.3323680095220013e+01  7.3951576062718132e+01  7.3179212972903755e+01  7.6488021027721700e+01  5.9553568485859820e+01  8.3340379041063116e+01  8.0859192089049330e+01  6.2939592978025658e+01  5.8653270140505015e+01  6.1112913141895817e+01  6.1879011509151390e+01  6.2960054617054880e+01  6.1108981881528877e+01  6.0084454636238519e+01  6.2200204840160694e+01  7.0034360710419506e+01  7.1862996139966839e+01  7.1431718586187273e+01  8.0706111516396007e+01  5.7605368955542041e+01  5.7088542491018337e+01  7.3015494780009178e+01  5.6779020739960337e+01  7.0988191868042961e+01  6.8211245273201783e+01  6.2587704540700742e+01  7.3729241312975148e+01  6.6946656774513258e+01  6.5965098552605625e+01  5.4932658598915175e+01  7.8589012462877292e+01  6.6487876471088128e+01  7.1106361147783531e+01  8.0785565772533900e+01  5.6282418539845757e+01  6.1284469312478272e+01  5.8904640439680833e+01  6.0342385435893071e+01  7.8921699432942731e+01  6.3586805532913608e+01  6.3923184200735982e+01  6.5282180898224652e+01  7.5253686490369319e+01  8.9543528521630336e+01  6.5200177967307340e+01  8.4228442960692917e+01  6.3806926912375900e+01  6.5371409605955378e+01  6.1677400923094169e+01  7.1174446435050129e+01  6.9321243138831548e+01  6.2225877918621784e+01  6.3214515822086113e+01  7.7540058441071977e+01  6.5949355729034082e+01  5.8124591556821677e+01  5.9113477666938287e+01  5.8296001693723007e+01  5.7586814722799382e+01  7.5265973355388397e+01  7.1964121937149088e+01  6.4396382997071427e+01  7.3533244442747005e+01  7.2032693942760588e+01  6.4353595556716741e+01  5.3351880221584821e+01  5.5665768223904173e+01  5.7266645963461080e+01  7.3460894463906484e+01  6.6311939813859283e+01  6.6953228218945497e+01  6.9399828295236844e+01  6.7265143115308845e+01  6.5339846945989635e+01  6.5898212646168247e+01  7.6402550231410885e+01  6.9942257915280848e+01  6.8030099996018421e+01  6.7103971525696480e+01  7.1911044771120231e+01  7.1675362421378395e+01  7.0596851936179107e+01  7.0378874239647502e+01  6.7963927272740989e+01  6.7809527988218107e+01  6.3321374358887482e+01  6.6937629076597133e+01  6.8477618134268042e+01  6.7724455273280341e+01  6.7917879011384471e+01  5.3166595725346546e+01  5.6660342763043069e+01  7.9525955073184292e+01  5.6284872330840400e+01  8.4332343771773523e+01  5.7407612231783311e+01  5.5427471515523891e+01  6.6271429205303050e+01  5.2155247228000199e+01  7.6850095993330328e+01  5.3795253796806868e+01  7.1719335540053279e+01  5.1198691969038315e+01  6.8967576763313190e+01  7.5046254083424486e+01  6.7508732069280782e+01  6.5045739862606311e+01  6.4706854321635106e+01  5.9594053380661187e+01  5.8425064210072151e