<?xml version="1.0"?>
<VTKFile type="UnstructuredGrid"  version="0.1"  >
<UnstructuredGrid>
<Piece  NumberOfPoints="2743" NumberOfCells="5270">
<Points>
<DataArray  type="Float64"  NumberOfComponents="3"  format="ascii">-0.12 0.1 0  -0.12 0 0  -0.01986476715483886 0 0  -0.01986476715483886 0.002321858282504599 0  -0.01879385241571817 0.006840402866513377 0  -0.01670975622825873 0.01099017956141612 0  -0.01372483275737467 0.01454747283146098 0  -0.009999999999999995 0.01732050807568877 0  -0.005736064654221804 0.01915979024630978 0  -0.001162896578209515 0.01996616316542536 0  0.003472963553338608 0.01969615506024416 0  0.007921595320783138 0.01836432213760548 0  0.01194317183405572 0.01604246385510088 0  0.01532088886237956 0.01285575219373078 0  0.01787265280646825 0.008975983604009244 0  0.01946089741159648 0.004612317414848803 0  0.02 0 0  0.12 0 0  0.12 0.1 0  0 0.1 0  0.06 0.1 0  -0.06 0.1 0  0.12 0.05 0  0.06999999999999999 0 0  -0.12 0.05 0  -0.06993238357741943 0 0  0.06954545454545454 0.05045454545454546 0  -0.05256818197129183 0.04876858210896794 0  0.03 0.06852793994995832 0  -0.01060230953534651 0.06012868531377026 0  -0.08590602075287224 0.07008722490344668 0  -0.08700383268980955 0.03297312682365156 0  0.09 0.1 0  0.09454951298701297 0.02545048701298702 0  0.04421726329698947 0.02908215157121827 0  -0.03 0.1 0  -0.09 0.1 0  0.03 0.1 0  0.094941534914361 0.0689649209486166 0  -0.045 0.07602120282224097 0  0.0137000972673793 0.04576151173676769 0  -0.04489857536612915 0 0  -0.02795527007175781 0.03755044438085961 0  -0.06241371758055736 0.02479853554667227 0  0.06931814492325854 0.02522317739079102 0  0.0562106357694593 0.07357769546517523 0  -0.09496619178870971 0 0  0.12 0.025 0  0.095 0 0  -0.12 0.025 0  -0.12 0.07500000000000001 0  0.12 0.07500000000000001 0  0.045 0 0  -0.0228302666921874 0.07883391093803507 0  0.09815763663419913 0.04717696422689629 0  0.04642316516164364 0.05216224004895101 0  0.015 0.08426396997497916 0  0.07685335020605615 0.08199579006851358 0  -0.03212624651891543 0.05871373573766032 0  -0.06454151582324234 0.06677080404579981 0  -0.007428983740834363 0.03973215840314246 0  -0.04143162460864844 0.02103341629232999 0  -0.07788632568368571 0.05127672197436213 0  -0.09902623975019198 0.05337871787903269 0  -0.075 0.1 0  -0.1014173577311382 0.0832008292773658 0  0.105 0.1 0  0.008793975861786027 0.06520032249375621 0  -0.003877486809385651 0.08128666365361911 0  0.04056005001669608 0.08426396997497916 0  -0.07890609788649815 0.0162597993618741 0  -0.1010699031813867 0.01892186545593956 0  0.08267954418645374 0.03858457665398622 0  0.08249999999999999 0.01250797385719048 0  0.1070573481575616 0.01294265184243836 0  -0.1072273189424094 0.0375 0  0.05487128127324764 0.0148172916808382 0  -0.07306292723448589 0.08234923187849305 0  0.02604316659281994 0.02760414390118441 0  0.03422315740010771 0.01291039266157378 0  0.02953764603397802 0.05164069645856708 0  0.05711184749668567 0.0394951990120913 0  0.1048403709991175 0.08290422259947053 0  0.07836733468041428 0.06502779237175893 0  -0.015 0.1 0  0.107641636468974 0.05970823073603768 0  0.12 0.03750000000000001 0  -0.07203199631147464 0.0369378911801824 0  -0.05383214135241159 0.01227496304049853 0  -0.12 0.0625 0  -0.105 0.1 0  0.075 0.1 0  0.015 0.1 0  -0.045 0.1 0  0.045 0.1 0  -0.10518488525811 0.06789183644845204 0  -0.04335959578005873 0.03636269925572742 0  -0.05884641539443965 0.08000585119468683 0  -0.02074261661302542 0.04996461834162433 0  -0.02653136512200803 0.0222624586885067 0  -0.08714978711530966 0.08578346506967012 0  -0.03506452979410112 0.08648708658184591 0  -0.04620947545617006 0.0616799095273325 0  0.0006562636529589983 0.05143519384945657 0  0.1057204605480501 0.03475816363918364 0  0.09074280792825767 0.08565566471894244 0  0.005667439598789157 0.03387418246945268 0  -0.03238167126048401 0 0  0.0383080886578613 0.04129238651963005 0  0.08505369180647195 0.05254495235246789 0  -0.1074830958943549 0 0  -0.12 0.0125 0  0.05414542183412842 0.08735675763730583 0  0.04308500944676981 0.07115822817126308 0  0.0649349230807125 0.06320229510900416 0  -0.05637247339858926 0.03632415216907382 0  -0.01542434356580282 0.02929607297537314 0  0.02778002500834804 0.08142901444438948 0  -0.06542774243586742 0.04799884169932159 0  -0.06661544991358234 0.0127173865239021 0  0.08192808295131557 0.02597463862592918 0  0.07006960615839669 0.03783311541884806 0  0.06988230421815755 0.01261762329223161 0  -0.12 0.08750000000000001 0  -0.08244928768306457 0 0  -0.05741547947177429 0 0  -0.03984291085584598 0.04859364585838993 0  0.08249999999999999 0 0  0.12 0.0625 0  -0.12 0.03750000000000001 0  0.12 0.0125 0  0.0325 0 0  0.0575 0 0  0.1075 0 0  0.12 0.08750000000000001 0  0.02042070411167864 0.06034025931465875 0  0.05702213417260474 0.02706267745085339 0  0.0675 0.09013045458016318 0  0.09478643990600856 0.0122865785926504 0  -0.04904630236735645 0.08801060141112049 0  0.02613192868361687 0.0398635327923046 0  -0.09569137037305205 0.04159910065917647 0  0.05140611894455763 0.0628291923813368 0  0.1085809652542695 0.07158881227331852 0  0.05796589338150855 0.05105903259253412 0  0.03841143349411784 0.06054564265388553 0  -0.02947166435407259 0.01113520957350828 0  -0.1102478054683027 0.05625 0  -0.09068017366517905 0.01182794374687028 0  -0.01434600857542353 0.08772663538203848 0  -0.03362945317777148 0.07517582904977035 0  -0.01235387050651601 0.0723330924144738 0  -0.02307888867457602 0.06674121501662693 0  -0.002185408069912574 0.06756456274836646 0  0.0678638500046832 0.07452078468888843 0  0.08597040057425252 0.07558162872540394 0  0.09674588960513322 0.05809991882890109 0  0.1094709655577269 0.04555436451412986 0  0.09473770132491341 0.03658207429318428 0  -0.06454868296360231 0.08970720561340952 0  0.1088432154030167 0.02400081163981114 0  -0.07748216799376378 0.02726807518039781 0  0.0075 0.09213198498748959 0  0.01849963805527029 0.07258270415679953 0  0.0225 0.09213198498748959 0  -0.07477959581424944 0.07129038985899076 0  -0.05389685222033951 0.06954987308797576 0  -0.05952130701477828 0.05712689877479761 0  -0.09084078800149091 0.02274804774342801 0  -0.09837161430440977 0.03085986409994825 0  -0.05131093786741553 0.0263250162658456 0  0.01635618606258252 0.03530907600454269 0  -0.03460613037873773 0.02922068783924693 0  -0.04043226315035484 0.01006625299372829 0  0.08175024910257063 0.09159737271826002 0  -0.09494035380298299 0.06367583527464522 0  -0.0886934906578859 0.04994210372431981 0  -0.02490130542947547 0.09038352188878838 0  0.04417108737523257 0.01793664269923905 0  -0.003940932065510782 0.02996170313966536 0  -0.01783357510351885 0.03997209276407525 0  -0.009556322084365085 0.04984630266759408 0  -0.09566755421412014 0.074271403467777 0  0.0355203970594753 0.02354533265972011 0  0.006555555071563847 0.07647100871020274 0  -0.07937685857812513 0.06175606142440594 0  -0.082228823034201 0.04201720146426499 0  -0.06983948840172999 0.05776693996935201 0  -0.09555085505908593 0.09149315155487603 0  -0.1098516392886323 0.0771584086134595 0  0.0975 0.1 0  0.01159727503865655 0.05556931308228881 0  -0.1115659278883601 0.01875 0  -0.1012246438415323 0.008426566493923617 0  0.01474516449273796 0.0255393740673827 0  0.08779480154260712 0.06219573447921576 0  -0.1125 0.1 0  -0.109677715301956 0.0898066291811736 0  0.1125 0.1 0  -0.1076436806656361 0.02771938223489072 0  -0.1109003748179492 0.009075404417277109 0  -0.03013785075543634 0.04712089514258909 0  -0.004952464847218618 0.0912677883600678 0  -0.1065795284902037 0.04722264329381553 0  0.04842831953664987 0.07898377417315099 0  0.03252098192319938 0.09028046125939154 0  0.02476218534733019 0.01628634550873906 0  0.04791904264346727 0.04258131505029045 0  0.06144185941573184 0.08140605316446399 0  0.1108170457022867 0.09049022742137205 0  -0.08249999999999999 0.1 0  -0.07849279483093181 0.09068500987040669 0  0.09901040145429967 0.0905247702494426 0  -0.07619083563024201 0.007152163970009891 0  -0.03784209605914159 0.06649148111429766 0  0.03557615988040569 0.07650767001919569 0  0.03302905362294855 0.03368357951329398 0  0.001528049998133968 0.0421884697145129 0  -0.06677219502603519 0.0755735126223121 0  -0.07078299185927128 0.02093806600642789 0  0.07624698700554428 0.01898789084580359 0  0.0425071772133816 0.008872273040118464 0  0.06222675218673776 0.01983691994242202 0  0.05125 0.006533019494560529 0  -0.08112674022156063 0.07793832028046994 0  0.0894563302875119 0.04461415956113914 0  0.07600555403016987 0.04440122631805228 0  0.1011730931788228 0.01956623203424818 0  0.08875791189114002 0.01876216216110217 0  0.07625 0.006253986928595243 0  0.10125 0.00625378014893175 0  0.06159289116562519 0.008367939956509781 0  0.1133219866490167 0.006678013350983326 0  0.12 0.03125 0  0.08875 0 0  0.09447377394606553 0.07772073910541109 0  0.1125347363168419 0.07917181005820358 0  -0.0360489221788708 0.04088174671649498 0  0.07238835401788725 0.0586903785336876 0  0.07770534388963661 0.0735202678075017 0  -0.02352204721963873 0.05812853133009549 0  0.02771469012026706 0.007208889738796465 0  0.06289457418076626 0.0332368862735679 0  0.02997504279709136 0.060078672135782 0  0.0379740367310045 0.0521076669766706 0  0.02209772318747019 0.04741115745969623 0  -0.0375 0.1 0  -0.04152152214341864 0.09214855581173653 0  0.07670804270236463 0.03261307516989712 0  0.08846339346732941 0.03112076208171376 0  0.06426407185079112 0.0439136177978413 0  0.05037140838704721 0.03465168226171754 0  -0.1136136594712047 0.0428084044537857 0  -0.113526383098718 0.06949936267301912 0  -0.002312773411525084 0.05922711625796673 0  0.04612867834591947 0.09118715625326625 0  0.0525 0.1 0  -0.0525 0.1 0  -0.05642436013397981 0.09226832717651308 0  0.12 0.01875 0  0.0375 0.1 0  -0.1021974954105155 0.06059626541185022 0  0.04989633308677061 0.02348577305550612 0  -0.12 0.03125 0  0.003928287502683688 0.08448841352572942 0  0.1030125400079595 0.05335714910633224 0  0.1025673057510353 0.0660868
[...]
<PointData  Scalars="f_29"> 
<DataArray  type="Float64"  Name="f_29"  format="ascii">1.0000069438553073e+01  1.0001495679632484e+01  5.0000000000000000e+01  4.9999999999999993e+01  5.0000000000000000e+01  5.0000000000000000e+01  5.0000000000000000e+01  5.0000000000000000e+01  5.0000000000000000e+01  5.0000000000000000e+01  5.0000000000000000e+01  5.0000000000000000e+01  5.0000000000000000e+01  5.0000000000000000e+01  5.0000000000000000e+01  5.0000000000000000e+01  5.0000000000000000e+01  1.0001509483516033e+01  1.0000069157930511e+01  1.0012165750758445e+01  1.0002128865419959e+01  1.0002124794358997e+01  1.0000528152556413e+01  1.0146605155601790e+01  1.0000531775076675e+01  1.0147270663419478e+01  1.0027029667154430e+01  1.0122648294282968e+01  1.0087736904084402e+01  1.0386157412152201e+01  1.0001975452064009e+01  1.0012686069433109e+01  1.0000330808134819e+01  1.0007674023270424e+01  1.0930560399208236e+01  1.0007645646553039e+01  1.0000330376727351e+01  1.0007651805363020e+01  1.0001007368265229e+01  1.0021016403501013e+01  1.1641291605376352e+01  1.2251853562668382e+01  1.1816918755965220e+01  1.0198962612846579e+01  1.0097546126227092e+01  1.0013391432086452e+01  1.0010418208414505e+01  1.0001147273338624e+01  1.0010423468748831e+01  1.0001143509709472e+01  1.0000166209176692e+01  1.0000165614651262e+01  1.2228754322577121e+01  1.0040834879687791e+01  1.0002404086193586e+01  1.0149155881780432e+01  1.0028776941864660e+01  1.0001738604643883e+01  1.0202592771576308e+01  1.0012906886997985e+01  1.3711288994256275e+01  1.1881825826650084e+01  1.0012380726615181e+01  1.0001673954094120e+01  1.0000884654898945e+01  1.0000265162195230e+01  1.0000121095408256e+01  1.0231324926643628e+01  1.0044498157878804e+01  1.0012520263484754e+01  1.0047406971768957e+01  1.0004591849373206e+01  1.0015217332564344e+01  1.0035103292127127e+01  1.0002868625542154e+01  1.0001575437651910e+01  1.0605374715848811e+01  1.0002222485393744e+01  1.4884988654084752e+01  1.5717800006479690e+01  1.0452837532362626e+01  1.0155801306529431e+01  1.0000211514170323e+01  1.0005023097780612e+01  1.0010693719945770e+01  1.0000598189923190e+01  1.0000825918028239e+01  1.0045395923511601e+01  1.0726804546493284e+01  1.0000306665745905e+01  1.0000120907933658e+01  1.0000883077127863e+01  1.0010786852630925e+01  1.0004383353766647e+01  1.0004389735416947e+01  1.0000472405567850e+01  1.0621402501675002e+01  1.0006699081896061e+01  1.0819233605158200e+01  1.7059292205263954e+01  1.0000659984388324e+01  1.0013103462809509e+01  1.0068632344245202e+01  1.1090506671279961e+01  1.0001967129503148e+01  1.0000507068178482e+01  1.7359216301920988e+01  1.9195342245226943e+01  1.0641476436819900e+01  1.0006068112774447e+01  1.0002996752270144e+01  1.0001394363005542e+01  1.0004967809897622e+01  1.0036084829876470e+01  1.0016323110167002e+01  1.0201181751639993e+01  1.8409275732492436e+01  1.0027082563365997e+01  1.0044400657591995e+01  1.0185075132306020e+01  1.0026664843454379e+01  1.0052352429724888e+01  1.0131700929960390e+01  1.0000092050657832e+01  1.0038858877680665e+01  1.0570345925183750e+01  1.0317499747162501e+01  1.0038907738644191e+01  1.0000305921895000e+01  1.0000829453299891e+01  1.0001408929846242e+01  1.9129061946825946e+01  1.0566832169541309e+01  1.0002978957940655e+01  1.0000091817022568e+01  1.0286745104975950e+01  1.0307260060393308e+01  1.0001914678989918e+01  1.0009733076992170e+01  1.0006205455514888e+01  1.1665294689597756e+01  1.0003880258942386e+01  1.0044377664323511e+01  1.0000300750252684e+01  1.0067593492270477e+01  1.0122002619014999e+01  2.0148423955364414e+01  1.0000586016541364e+01  1.0015042923840941e+01  1.0021074182268894e+01  1.0039616325456610e+01  1.0102569617691307e+01  1.0137389392867403e+01  1.0189114987706427e+01  1.0005674855658913e+01  1.0001362177302678e+01  1.0001597227609992e+01  1.0000979529424106e+01  1.0005170691419327e+01  1.0002348573835292e+01  1.0002014080328310e+01  1.0040071482738410e+01  1.0016074139053774e+01  1.0086891116320738e+01  1.0012566259745492e+01  1.0004335351747077e+01  1.0021662029086093e+01  1.0038759337225144e+01  1.0011850252646493e+01  1.0004436013837852e+01  1.0550440369075334e+01  1.4376169770076636e+01  1.2159874981959458e+01  1.3212432078387041e+01  1.0000705996091872e+01  1.0001374201597928e+01  1.0005069934514989e+01  1.0013375117438919e+01  1.1656608417515189e+01  2.1852781722966128e+01  1.2553324689953321e+01  1.1184735379850903e+01  1.0000694070556579e+01  1.2915552875654047e+01  1.0071440231787626e+01  1.0005775567088449e+01  1.0013624690433620e+01  1.0016311039743693e+01  1.0000271610084814e+01  1.0000207577155475e+01  1.0000198206738874e+01  1.0612015873895515e+01  1.0001796993769776e+01  1.0005277528249790e+01  2.2869129174888155e+01  1.0002756497415545e+01  1.0000081399408923e+01  1.0000114080280881e+01  1.0000081359494807e+01  1.0002036576864176e+01  1.0002149512687931e+01  1.0669802756782852e+01  1.0017439692872877e+01  1.0001148490405797e+01  1.0013519014091996e+01  1.0010658134259531e+01  2.2621304288028416e+01  1.0275982476575026e+01  1.0005118352259482e+01  1.0000105301936738e+01  1.0000548030146081e+01  1.0000920622968147e+01  1.0000221248208398e+01  1.0072886620409898e+01  1.0073199322651238e+01  1.0031826064093901e+01  1.1747889270556891e+01  1.3015802549325272e+01  1.0005626445622092e+01  1.0097488029318436e+01  1.0058527525015727e+01  1.2652861185495979e+01  1.0241581099255542e+01  1.1070518954640058e+01  1.0001699414047836e+01  1.0006074014300591e+01  1.0021444710456349e+01  1.0004518033743672e+01  1.0016288603995626e+01  1.0073210511724694e+01  1.0005353663138939e+01  1.0341431298450356e+01  1.0001842574443030e+01  1.0000982504327450e+01  1.0020051401168216e+01  1.0000613390183943e+01  1.0000161189962814e+01  1.0782018645293210e+01  1.0012535814817522e+01  1.0002961260200278e+01  1.0321252562259136e+01  2.4263424052797557e+01  1.0129393776003633e+01  1.0199004888329629e+01  1.0263992307213485e+01  1.0995767470249744e+01  1.0005922846394787e+01  1.0006638052909631e+01  1.0035395700947637e+01  1.0011740715927203e+01  1.0063421580392244e+01  1.0378340917513899e+01  1.0000834544239213e+01  1.0000255883171642e+01  1.0465832397053903e+01  1.0005720317740440e+01  1.0003117268809081e+01  1.0003103320505456e+01  1.0003221562628124e+01  1.0001286273157621e+01  1.0005957988982791e+01  1.0000883029843328e+01  1.0730238773042556e+01  1.0000986334214856e+01  1.0032238878434459e+01  1.0001178663501767e+01  1.0000636729849933e+01  1.0000404389293429e+01  1.0288839924182613e+01  1.0392902984262781e+01  1.0002889925227091e+01  1.0082124977464588e+01  1.0012505206532120e+01  1.4715535209533874e+01  1.0045392852329430e+01  1.0024413723894288e+01  1.0024729040678327e+01  1.0083574412747790e+01  1.1124917998362452e+01  1.0288015374277446e+01  1.0002865191212356e+01  1.0000462261508829e+01  1.4613756157816139e+01  1.0033541702243893e+01  1.1455690331835658e+01  1.0328903124678188e+01  1.1547809421941192e+01  1.0002586927853494e+01  1.0000584910500219e+01  1.0009322771765344e+01  1.0015036025162418e+01  1.0009329600335493e+01  1.0011728615630529e+01  1.0001394456568621e+01  1.0001395393427657e+01  1.0000544501988399e+01  1.0000198945955379e+01  1.0011772690432471e+01  1.0000920083709300e+01  1.0000508163607222e+01  2.4927644882892988e+01  2.5863471231342587e+01  1.0139138851552206e+01  1.0110783228648137e+01  1.0001123582207345e+01  1.0001287865803256e+01  1.0113404379154826e+01  1.0000226012056043e+01  1.0000324454778344e+01  1.0000075111348131e+01  1.0135153572665587e+01  1.0176169658746710e+01  1.0003995377518731e+01  1.0001922273684352e+01  1.0000451463419177e+01  1.0000124592912846e+01  1.0000359474585581e+01  1.0005697261238758e+01  1.0009149217925534e+01  1.0021455070585301e+01  1.0019403217773673e+01  1.0020005211259427e+01  1.0013140968613843e+01  1.0008259840550428e+01  1.0040789090373318e+01  1.0559203931775716e+01  1.0000909792134365e+01  1.0000328141403818e+01  1.0630578460860855e+01  2.6512047364132002e+01  1.3288029123176246e+01  1.0001267001228454e+01  1.0003475691836018e+01  1.0615495485077320e+01  1.1330856335647281e+01  1.0000175528878433e+01  1.1251870398643685e+01  1.0001190261198555e+01  1.0010832528904022e+01  1.0001696273900006e+01  1.0005778810768724e+01  1.0003417371720852e+01  1.0007394497745544e+01  1.0263884195051691e+01  1.0020358973282814e+01  1.0063493233192757e+01  2.7121861537183889e+01  1.0030076443604775e+01  1.0033976058067939e+01  1.0019739102466458e+01  1.0002622458629201e+01  1.0003166129875602e+01  1.0088331181267071e+01  1.0012098516443640e+01  1.0576842880308801e+01  1.0000656610457147e+01  1.0000367698840138e+01  1.0007836796649235e+01  1.0025287818401180e+01  2.7861994558588258e+01  1.0022065315449469e+01  1.0000330610446632e+01  1.0760108838694070e+01  1.0307542422128641e+01  1.0011895288490473e+01  1.0002418065758327e+01  1.0068197154213198e+01  1.0071579602309248e+01  1.1880410070708185e+01  1.0008069896232584e+01  1.0010634448523765e+01  1.1258372291090451e+01  1.2074686081227915e+01  1.6173511765386476e+01  1.4463972125987217e+01  1.5641328096153236e+01  1.0146135164428829e+01  1.0026708456452031e+01  1.0056887988050926e+01  1.0013615454112550e+01  1.0618724629454960e+01  1.0000854621449966e+01  1.0008051982515758e+01  1.0000074862849878e+01  1.0061263538204246e+01  1.5022618730427251e+01  1.0135533188213865e+01  1.0149381319265542e+01  1.0058120864284584e+01  1.0039521350065328e+01  1.0018714247311971e+01  1.0020794466743688e+01  1.0022483375284271e+01  2.9063514555771288e+01  1.0001267515920514e+01  1.0318842566071735e+01  1.0005965671840114e+01  1.5969214809603264e+01  1.6741632110726457e+01  1.2049482778558581e+01  1.0022161762734044e+01  1.0065901961889104e+01  1.0001830412837005e+01  1.0001477311396966e+01  1.0485478517883644e+01  1.0276975018383258e+01  1.8344202587809797e+01  1.0561690208198298e+01  1.0092195241330350e+01  1.0003407167671163e+01  1.0010079961173240e+01  1.0010834393118046e+01  1.0005287985609240e+01  1.0004211656636956e+01  1.0001403960116170e+01  1.0068325093851129e+01  1.0050124071161799e+01  1.0785845250737056e+01  1.0067955112081927e+01  1.0131298839331137e+01  1.0143214609190819e+01  1.0332170153809946e+01  1.0160979819163853e+01  1.0305746520175118e+01  1.0368172873734732e+01  1.0014120384574726e+01  1.0007560197925081e+01  1.0058965834245640e+01  1.0115223146133159e+01  1.4536988245531639e+01  1.0005479504530626e+01  1.0075774470928005e+01  1.1131778415865103e+01  1.0030815447804422e+01  1.0000227884198589e+01  2.8778467733712095e+01  1.0001486884920046e+01  1.0001278728251579e+01  1.0000121066427266e+01  1.0001849420481598e+01  1.0287678861000835e+01  1.0075473904221711e+01  1.1120717052944441e+01  1.0000669084030607e+01  1.0000409361689234e+01  1.0005497232969443e+01  1.0000122042328305e+01  1.0000669544074025e+01  1.0020872683293449e+01  1.0019005734538750e+01  1.0008511011204204e+01  1.0231960599765301e+01  1.0459781217041929e+01  1.0167224406771355e+01  1.0008047608812973e+01  1.0037827817446871e+01  1.0001213118773171e+01  1.0167883608653675e+01  1.6314692808119212e+01  1.0014366430649851e+01  1.0075952936153893e+01  1.0059583780385548e+01  1.0198187595405866e+01  1.0027772557295743e+01  1.0023470968289153e+01  1.0005162365171508e+01  1.0010690654979959e+01  1.0000176628792159e+01  1.2744406826833153e+01  1.0002099746515889e+01  1.0002896560557261e+01  1.0003773108915855e+01  1.0298946158269388e+01  1.0008531929189221e+01  1.0106903798293759e+01  1.0000418897223653e+01  1.1595066710243200e+01  1.0140587693357141e+01  1.0002969805387242e+01  1.0039876309342063e+01  1.1046401392027759e+01  1.0037900886773546e+01  1.0000248319606023e+01  1.0000215132281738e+01  1.0002586922453952e+01  1.0039735371368190e+01  1.0828908186590175e+01  1.0020493057893219e+01  1.0029147296487245e+01  1.0000156553416703e+01  1.0000453947694652e+01  1.0036284455799805e+01  1.1467800079806818e+01  1.0002423225015692e+01  1.0001825203485838e+01  1.0002816253726159e+01  1.0003147829787636e+01  1.0002504491434641e+01  1.0003545690033446e+01  2.9571932149347987e+01  2.9322434975498123e+01  1.0044799986839505e+01  1.0109584696015085e+01  1.0046063264424806e+01  1.0096497103015588e+01  1.0001241829382312e+01  1.0001007986212628e+01  1.0008681906038317e+01  1.0007625114121268e+01  1.0004330468190455e+01  1.0335542237656245e+01  1.0031206518400907e+01  1.0000586644558281e+01  1.0000137135543678e+01  1.0000650578122592e+01  1.0001424769525434e+01  1.3008850487497501e+01  1.0075525461959298e+01  1.0037630973669165e+01  1.0027429280303163e+01  1.0178976003209845e+01  1.9306791328114304e+01  1.0251942113176865e+01  1.0001871292769879e+01  1.0001909041388123e+01  1.0992871399006019e+01  1.0000101963006159e+01  1.0000081057155555e+01  1.0000160899154343e+01  1.0002607503168834e+01  1.0003499497154616e+01  1.0002627586381671e+01  1.0007481405710834e+01  1.0470106926395365e+01  1.0001298065133421e+01  1.0000101076824500e+01  1.0001456612968354e+01  1.0000845247098008e+01  1.0001064770551347e+01  1.3134464457217527e+01  1.1257527007105466e+01  1.0003012921441730e+01  1.0004071212370025e+01  1.0006700525555587e+01  1.0044184736216570e+01  1.0001675906189073e+01  1.0011153444586364e+01  1.0000859273707484e+01  1.2739657229549939e+01  1.0000555420885469e+01  1.2773096073597841e+01  1.0001660202359675e+01  1.0019524454855954e+01  1.8674260075084067e+01  1.0364010099167986e+01  1.0003914706170054e+01  1.0054213847823059e+01  1.0001111562978904e+01  1.0000905325258891e+01  1.1096813858791636e+01  1.5343748998044624e+01  1.2528856424536986e+01  1.3074988731314887e+01  1.0000161028623765e+01  1.0001975725354244e+01  1.0191899945979065e+01  1.0006874298250697e+01  1.0023404599264044e+01  1.0003815705907314e+01  1.0000153560904355e+01  1.0007219419646139e+01  1.0945092081332408e+01  1.0009406653565506e+01  1.0009294129854023e+01  1.1148852375390126e+01  1.0023072064318214e+01  1.0003977872125049e+01  1.0031271705906777e+01  1.0020370517112370e+01  1.0021622279952245e+01  1.0013522354284614e+01  1.0011030838953596e+01  1.0009426857774242e+01  1.0012443488567920e+01  1.1132448358922886e+01  1.0455110041008702e+01  1.2868859695488274e+01  1.0000568574088083e+01  1.0084008325471796e+01  1.0054010918031633e+01  1.0001499057999558e+01  1.0104511374448261e+01  1.9243679913575253e+01  1.0001826628640037e+01  1.0005519961204499e+01  1.3894558105029239e+01  1.0453617806686125e+01  1.0001134345898215e+01  1.0000980795995867e+01  1.0000437524250406e+01  1.0003326967120937e+01  1.0004864856913697e+01  1.0008625835050019e+01  1.0000095788612287e+01  1.0001427763291376e+01  1.0125917907175147e+01  1.0016205156303213e+01  1.0593861874631584e+01  1.0023880162978013e+01  1.0001618259044690e+01  1.0008169924063804e+01  1.0003970520394416e+01  1.0026718195564831e+01  1.0000342312727595e+01  1.0080053760635627e+01  1.0000780549755559e+01  1.2793312031791976e+01  1.0183873089679569e+01  1.1456814946508501e+01  1.0001719038627330e+01  1.0000318439232244e+01  1.6627671432964338e+01  1.0000420659835212e+01  1.0677635983126125e+01  1.8100549882683563e+01  3.1575198523382657e+01  1.3010661845025306e+01  1.0003060539065311e+01  1.0013768800371404e+01  1.0000886655610206e+01  1.0006070419072344e+01  1.0050430399342620e+01  1.0000415929490554e+01  1.0000268074763898e+01  1.0000256797498336e+01  1.0000310587535935e+01  1.0066410183800299e+01  1.0035549594440711e+01  1.0000118035664274e+01  1.0000654447660848e+01  1.0162613090985705e+01  2.0690462596275889e+01  1.3311038646851493e+01  1.7477353175570453e+01  1.0001177030110654e+01  1.0018961036511893e+01  3.2553814822075836e+01  3.1098331574226854e+01  1.1003056249005200e+01  1.0012065344394669e+01  1.0396908964598056e+01  1.1016533893888912e+01  1.0001058204064183e+01  1.0024051957536091e+01  1.0001419837884455e+01  1.0000800302394428e+01  3.1930929627895679e+01  1.0004665163084761e+01  1.0001050782651371e+01  1.0001584138963299e+01  1.0001041289507032e+01  1.0319980492818194e+01  1.0008534663396002e+01  1.0003677063571430e+01  1.5297820275882469e+01  1.1115333922533335e+01  1.0534023589712673e+01  1.0009841258829958e+01  1.0219455027519126e+01  1.0000906509992099e+01  1.0217784731073198e+01  1.0065786003522502e+01  1.0000072292248381e+01  1.0000080473308127e+01  1.0072458082456412e+01  1.0013542891153072e+01  1.0000420620328077e+01  1.0004659405551415e+01  1.0130233466071012e+01  1.0002263912833754e+01  1.0003271474059082e+01  1.0426906266139881e+01  1.0423688170295483e+01  1.0047019726852918e+01  1.0001849895995903e+01  1.0000095886385905e+01  1.0001678882595524e+01  1.0068059432443164e+01  1.0000227233464756e+01  1.3561655520337666e+01  3.1204651030720299e+01  1.0009892624308440e+01  1.0000331067396418e+01  2.1769297352007786e+01  1.0011778455209839e+01  1.1765561105933902e+01  3.2822572512268735e+01  1.0336716243760289e+01  1.4753960166577148e+01  1.0000494003576957e+01  1.0003091230778837e+01  1.0189450779132315e+01  1.0000393395315067e+01  1.0058806929959564e+01  1.0204852870783069e+01  1.0021986141071315e+01  1.0012596291449624e+01  1.0013017582304609e+01  1.0004630206804320e+01  1.0008205651735407e+01  1.0528242292681231e+01  1.0105229785219569e+01  1.0004306401645094e+01  1.0807240204884044e+01  1.9865064214775462e+01  1.0073829455691996e+01  3.4676388536693992e+01  1.0030608976511113e+01  1.0261915114923465e+01  1.0073744962889400e+01  1.0203485132655503e+01  1.0249830316292540e+01  1.0205914282720178e+01  1.0806971076013635e+01  1.0015159764370756e+01  1.4773572496619446e+01  1.3164562167645524e+01  1.0021015116596312e+01  1.0000276546190854e+01  1.0000710167985376e+01  1.0017115408511000e+01  1.0009441075757804e+01  1.0029595999169663e+01  1.0019862539058623e+01  1.0033691749660711e+01  1.0068425357730389e+01  1.0123434803240146e+01  1.0126041082136597e+01  1.1894254297521806e+01  1.0001520257908014e+01  1.0002192449137677e+01  1.0596700625096885e+01  1.0014553632846001e+01  1.0408907459363803e+01  1.0019186041744176e+01  1.0000644711708281e+01  1.0236122954702363e+01  1.0106559598272783e+01  1.0051141387163666e+01  1.0006964999107351e+01  1.2078378978509924e+01  1.0012996521038801e+01  1.0424835385573783e+01  1.2029006656076545e+01  1.0013275414195247e+01  1.0010529349224216e+01  1.0006786562492849e+01  1.0008580447589249e+01  1.2215119432009155e+01  1.0003740609461245e+01  1.0006594354420066e+01  1.0009724460997848e+01  1.1028911028879898e+01  2.1405464082510658e+01  1.0001133430734882e+01  1.4463250319815202e+01  1.0013793167861493e+01  1.0015205655000795e+01  1.0008144294335906e+01  1.0088241404416179e+01  1.0041425698637784e+01  1.0012449937837319e+01  1.0033002720723744e+01  1.0848252042868246e+01  1.0001281585231657e+01  1.0016799386070671e+01  1.0008514634861838e+01  1.0018911271511683e+01  1.0003593051347741e+01  1.0396972384591772e+01  1.0408856988002352e+01  1.0020886155345654e+01  1.0285128306692991e+01  1.0157386692818678e+01  1.0016726913994118e+01  1.0000159534715634e+01  1.0004842944825148e+01  1.0008429640942540e+01  1.0203539459700194e+01  1.0003102955819529e+01  1.0002307800020564e+01  1.0025625727573241e+01  1.0003839596254368e+01  1.0020389965239819e+01  1.0016448226137992e+01  1.0896550125344715e+01  1.0045797018133255e+01  1.0012169719751761e+01  1.0002265929686914e+01  1.0104844477224905e+01  1.0099267186669188e+01  1.0053491728926460e+01  1.0050914163732969e+01  1.0007619285360676e+01  1.0007380201423180e+01  1.0016574355593828e+01  1.0001600868867310e+01  1.0219958225778516e+01  1.0098404577024876e+01  1.0070653268785255e+01  1.0005153032188566e+01  1.0000204624292872e+01  1.1744417646978455e+01  1.0000656931686722e+01  1.4929543516684483e+01  1.0000733222477011e+01  1.0000584568552410e+01  1.0074017531250023e+01  1.0002590049727180e+01  1.1188064060316556e+01  1.0000224675420373e+01  1.0518151920370864e+01  1.0000218222960067e+01  1.0020037846810434e+01  1.0604691971770981e+01  1.0011095823074424e+01  1.0001669987380318e+01  1.0040185549489959e+01  1.0003295680153959e+01  1.0002135741350088e