<?xml version="1.0"?>
<VTKFile type="UnstructuredGrid"  version="0.1"  >
<UnstructuredGrid>
<Piece  NumberOfPoints="2743" NumberOfCells="5270">
<Points>
<DataArray  type="Float64"  NumberOfComponents="3"  format="ascii">-0.12 0.1 0  -0.12 0 0  -0.01986476715483886 0 0  -0.01986476715483886 0.002321858282504599 0  -0.01879385241571817 0.006840402866513377 0  -0.01670975622825873 0.01099017956141612 0  -0.01372483275737467 0.01454747283146098 0  -0.009999999999999995 0.01732050807568877 0  -0.005736064654221804 0.01915979024630978 0  -0.001162896578209515 0.01996616316542536 0  0.003472963553338608 0.01969615506024416 0  0.007921595320783138 0.01836432213760548 0  0.01194317183405572 0.01604246385510088 0  0.01532088886237956 0.01285575219373078 0  0.01787265280646825 0.008975983604009244 0  0.01946089741159648 0.004612317414848803 0  0.02 0 0  0.12 0 0  0.12 0.1 0  0 0.1 0  0.06 0.1 0  -0.06 0.1 0  0.12 0.05 0  0.06999999999999999 0 0  -0.12 0.05 0  -0.06993238357741943 0 0  0.06954545454545454 0.05045454545454546 0  -0.05256818197129183 0.04876858210896794 0  0.03 0.06852793994995832 0  -0.01060230953534651 0.06012868531377026 0  -0.08590602075287224 0.07008722490344668 0  -0.08700383268980955 0.03297312682365156 0  0.09 0.1 0  0.09454951298701297 0.02545048701298702 0  0.04421726329698947 0.02908215157121827 0  -0.03 0.1 0  -0.09 0.1 0  0.03 0.1 0  0.094941534914361 0.0689649209486166 0  -0.045 0.07602120282224097 0  0.0137000972673793 0.04576151173676769 0  -0.04489857536612915 0 0  -0.02795527007175781 0.03755044438085961 0  -0.06241371758055736 0.02479853554667227 0  0.06931814492325854 0.02522317739079102 0  0.0562106357694593 0.07357769546517523 0  -0.09496619178870971 0 0  0.12 0.025 0  0.095 0 0  -0.12 0.025 0  -0.12 0.07500000000000001 0  0.12 0.07500000000000001 0  0.045 0 0  -0.0228302666921874 0.07883391093803507 0  0.09815763663419913 0.04717696422689629 0  0.04642316516164364 0.05216224004895101 0  0.015 0.08426396997497916 0  0.07685335020605615 0.08199579006851358 0  -0.03212624651891543 0.05871373573766032 0  -0.06454151582324234 0.06677080404579981 0  -0.007428983740834363 0.03973215840314246 0  -0.04143162460864844 0.02103341629232999 0  -0.07788632568368571 0.05127672197436213 0  -0.09902623975019198 0.05337871787903269 0  -0.075 0.1 0  -0.1014173577311382 0.0832008292773658 0  0.105 0.1 0  0.008793975861786027 0.06520032249375621 0  -0.003877486809385651 0.08128666365361911 0  0.04056005001669608 0.08426396997497916 0  -0.07890609788649815 0.0162597993618741 0  -0.1010699031813867 0.01892186545593956 0  0.08267954418645374 0.03858457665398622 0  0.08249999999999999 0.01250797385719048 0  0.1070573481575616 0.01294265184243836 0  -0.1072273189424094 0.0375 0  0.05487128127324764 0.0148172916808382 0  -0.07306292723448589 0.08234923187849305 0  0.02604316659281994 0.02760414390118441 0  0.03422315740010771 0.01291039266157378 0  0.02953764603397802 0.05164069645856708 0  0.05711184749668567 0.0394951990120913 0  0.1048403709991175 0.08290422259947053 0  0.07836733468041428 0.06502779237175893 0  -0.015 0.1 0  0.107641636468974 0.05970823073603768 0  0.12 0.03750000000000001 0  -0.07203199631147464 0.0369378911801824 0  -0.05383214135241159 0.01227496304049853 0  -0.12 0.0625 0  -0.105 0.1 0  0.075 0.1 0  0.015 0.1 0  -0.045 0.1 0  0.045 0.1 0  -0.10518488525811 0.06789183644845204 0  -0.04335959578005873 0.03636269925572742 0  -0.05884641539443965 0.08000585119468683 0  -0.02074261661302542 0.04996461834162433 0  -0.02653136512200803 0.0222624586885067 0  -0.08714978711530966 0.08578346506967012 0  -0.03506452979410112 0.08648708658184591 0  -0.04620947545617006 0.0616799095273325 0  0.0006562636529589983 0.05143519384945657 0  0.1057204605480501 0.03475816363918364 0  0.09074280792825767 0.08565566471894244 0  0.005667439598789157 0.03387418246945268 0  -0.03238167126048401 0 0  0.0383080886578613 0.04129238651963005 0  0.08505369180647195 0.05254495235246789 0  -0.1074830958943549 0 0  -0.12 0.0125 0  0.05414542183412842 0.08735675763730583 0  0.04308500944676981 0.07115822817126308 0  0.0649349230807125 0.06320229510900416 0  -0.05637247339858926 0.03632415216907382 0  -0.01542434356580282 0.02929607297537314 0  0.02778002500834804 0.08142901444438948 0  -0.06542774243586742 0.04799884169932159 0  -0.06661544991358234 0.0127173865239021 0  0.08192808295131557 0.02597463862592918 0  0.07006960615839669 0.03783311541884806 0  0.06988230421815755 0.01261762329223161 0  -0.12 0.08750000000000001 0  -0.08244928768306457 0 0  -0.05741547947177429 0 0  -0.03984291085584598 0.04859364585838993 0  0.08249999999999999 0 0  0.12 0.0625 0  -0.12 0.03750000000000001 0  0.12 0.0125 0  0.0325 0 0  0.0575 0 0  0.1075 0 0  0.12 0.08750000000000001 0  0.02042070411167864 0.06034025931465875 0  0.05702213417260474 0.02706267745085339 0  0.0675 0.09013045458016318 0  0.09478643990600856 0.0122865785926504 0  -0.04904630236735645 0.08801060141112049 0  0.02613192868361687 0.0398635327923046 0  -0.09569137037305205 0.04159910065917647 0  0.05140611894455763 0.0628291923813368 0  0.1085809652542695 0.07158881227331852 0  0.05796589338150855 0.05105903259253412 0  0.03841143349411784 0.06054564265388553 0  -0.02947166435407259 0.01113520957350828 0  -0.1102478054683027 0.05625 0  -0.09068017366517905 0.01182794374687028 0  -0.01434600857542353 0.08772663538203848 0  -0.03362945317777148 0.07517582904977035 0  -0.01235387050651601 0.0723330924144738 0  -0.02307888867457602 0.06674121501662693 0  -0.002185408069912574 0.06756456274836646 0  0.0678638500046832 0.07452078468888843 0  0.08597040057425252 0.07558162872540394 0  0.09674588960513322 0.05809991882890109 0  0.1094709655577269 0.04555436451412986 0  0.09473770132491341 0.03658207429318428 0  -0.06454868296360231 0.08970720561340952 0  0.1088432154030167 0.02400081163981114 0  -0.07748216799376378 0.02726807518039781 0  0.0075 0.09213198498748959 0  0.01849963805527029 0.07258270415679953 0  0.0225 0.09213198498748959 0  -0.07477959581424944 0.07129038985899076 0  -0.05389685222033951 0.06954987308797576 0  -0.05952130701477828 0.05712689877479761 0  -0.09084078800149091 0.02274804774342801 0  -0.09837161430440977 0.03085986409994825 0  -0.05131093786741553 0.0263250162658456 0  0.01635618606258252 0.03530907600454269 0  -0.03460613037873773 0.02922068783924693 0  -0.04043226315035484 0.01006625299372829 0  0.08175024910257063 0.09159737271826002 0  -0.09494035380298299 0.06367583527464522 0  -0.0886934906578859 0.04994210372431981 0  -0.02490130542947547 0.09038352188878838 0  0.04417108737523257 0.01793664269923905 0  -0.003940932065510782 0.02996170313966536 0  -0.01783357510351885 0.03997209276407525 0  -0.009556322084365085 0.04984630266759408 0  -0.09566755421412014 0.074271403467777 0  0.0355203970594753 0.02354533265972011 0  0.006555555071563847 0.07647100871020274 0  -0.07937685857812513 0.06175606142440594 0  -0.082228823034201 0.04201720146426499 0  -0.06983948840172999 0.05776693996935201 0  -0.09555085505908593 0.09149315155487603 0  -0.1098516392886323 0.0771584086134595 0  0.0975 0.1 0  0.01159727503865655 0.05556931308228881 0  -0.1115659278883601 0.01875 0  -0.1012246438415323 0.008426566493923617 0  0.01474516449273796 0.0255393740673827 0  0.08779480154260712 0.06219573447921576 0  -0.1125 0.1 0  -0.109677715301956 0.0898066291811736 0  0.1125 0.1 0  -0.1076436806656361 0.02771938223489072 0  -0.1109003748179492 0.009075404417277109 0  -0.03013785075543634 0.04712089514258909 0  -0.004952464847218618 0.0912677883600678 0  -0.1065795284902037 0.04722264329381553 0  0.04842831953664987 0.07898377417315099 0  0.03252098192319938 0.09028046125939154 0  0.02476218534733019 0.01628634550873906 0  0.04791904264346727 0.04258131505029045 0  0.06144185941573184 0.08140605316446399 0  0.1108170457022867 0.09049022742137205 0  -0.08249999999999999 0.1 0  -0.07849279483093181 0.09068500987040669 0  0.09901040145429967 0.0905247702494426 0  -0.07619083563024201 0.007152163970009891 0  -0.03784209605914159 0.06649148111429766 0  0.03557615988040569 0.07650767001919569 0  0.03302905362294855 0.03368357951329398 0  0.001528049998133968 0.0421884697145129 0  -0.06677219502603519 0.0755735126223121 0  -0.07078299185927128 0.02093806600642789 0  0.07624698700554428 0.01898789084580359 0  0.0425071772133816 0.008872273040118464 0  0.06222675218673776 0.01983691994242202 0  0.05125 0.006533019494560529 0  -0.08112674022156063 0.07793832028046994 0  0.0894563302875119 0.04461415956113914 0  0.07600555403016987 0.04440122631805228 0  0.1011730931788228 0.01956623203424818 0  0.08875791189114002 0.01876216216110217 0  0.07625 0.006253986928595243 0  0.10125 0.00625378014893175 0  0.06159289116562519 0.008367939956509781 0  0.1133219866490167 0.006678013350983326 0  0.12 0.03125 0  0.08875 0 0  0.09447377394606553 0.07772073910541109 0  0.1125347363168419 0.07917181005820358 0  -0.0360489221788708 0.04088174671649498 0  0.07238835401788725 0.0586903785336876 0  0.07770534388963661 0.0735202678075017 0  -0.02352204721963873 0.05812853133009549 0  0.02771469012026706 0.007208889738796465 0  0.06289457418076626 0.0332368862735679 0  0.02997504279709136 0.060078672135782 0  0.0379740367310045 0.0521076669766706 0  0.02209772318747019 0.04741115745969623 0  -0.0375 0.1 0  -0.04152152214341864 0.09214855581173653 0  0.07670804270236463 0.03261307516989712 0  0.08846339346732941 0.03112076208171376 0  0.06426407185079112 0.0439136177978413 0  0.05037140838704721 0.03465168226171754 0  -0.1136136594712047 0.0428084044537857 0  -0.113526383098718 0.06949936267301912 0  -0.002312773411525084 0.05922711625796673 0  0.04612867834591947 0.09118715625326625 0  0.0525 0.1 0  -0.0525 0.1 0  -0.05642436013397981 0.09226832717651308 0  0.12 0.01875 0  0.0375 0.1 0  -0.1021974954105155 0.06059626541185022 0  0.04989633308677061 0.02348577305550612 0  -0.12 0.03125 0  0.003928287502683688 0.08448841352572942 0  0.1030125400079595 0.05335714910633224 0  0.1025673057510353 0.0660868
[...]
<PointData  Scalars="f_29"> 
<DataArray  type="Float64"  Name="f_29"  format="ascii">1.0595929537382018e+01  1.1828973484203075e+01  5.0000000000000000e+01  4.9999999999999993e+01  5.0000000000000000e+01  5.0000000000000000e+01  5.0000000000000000e+01  5.0000000000000000e+01  5.0000000000000000e+01  5.0000000000000000e+01  5.0000000000000000e+01  5.0000000000000000e+01  5.0000000000000000e+01  5.0000000000000000e+01  5.0000000000000000e+01  5.0000000000000000e+01  5.0000000000000000e+01  1.1832018055554961e+01  1.0595827736344672e+01  1.4433371508419933e+01  1.2139490812126740e+01  1.2138026900350944e+01  1.1174014690305389e+01  1.7407663182091710e+01  1.1174885377699340e+01  1.7423821008574649e+01  1.4124684481376152e+01  1.7017895600519218e+01  1.6572106873567158e+01  2.0446586287278990e+01  1.1621900591426865e+01  1.3156606568959035e+01  1.0982730469999028e+01  1.2686698028918002e+01  2.3448382685353369e+01  1.3667694283076829e+01  1.0982120949191193e+01  1.3668676332207980e+01  1.1275814609116491e+01  1.4133157391598333e+01  2.6070060340675695e+01  2.7529282828910652e+01  2.6516798596372396e+01  1.8196417034716347e+01  1.6455826858876069e+01  1.3428263807599382e+01  1.3029509608166133e+01  1.1629715877357947e+01  1.3028602105642326e+01  1.1628613957145461e+01  1.0759219852452020e+01  1.0759151773907345e+01  2.7473989092968310e+01  1.5406753920253884e+01  1.1766552015170948e+01  1.7543266755781485e+01  1.5084983001328048e+01  1.1667336314277280e+01  1.8460496083431323e+01  1.3259574250937295e+01  3.0381118507110592e+01  2.6655072959906505e+01  1.3108898542891064e+01  1.1543984742995368e+01  1.1470874756769101e+01  1.0845465320926493e+01  1.0692143947082554e+01  1.8978672550377411e+01  1.5719896208352331e+01  1.3726054869912556e+01  1.5037379833217452e+01  1.2324196752807179e+01  1.3359080119174562e+01  1.4542323834993530e+01  1.2070278031403795e+01  1.1630838927422733e+01  2.1752305617953386e+01  1.1841091428842255e+01  3.2022639599589930e+01  3.3006325007483078e+01  2.0867465827998512e+01  1.7574414395101435e+01  1.0790562527925418e+01  1.2270231578164029e+01  1.4219516931248021e+01  1.1121972931222484e+01  1.1415541804557616e+01  1.4948216257750701e+01  2.2425461555451282e+01  1.0944286501247575e+01  1.0691465945159425e+01  1.1470895928897992e+01  1.4224719947856038e+01  1.2912125531782991e+01  1.2913476536058329e+01  1.1011316282981984e+01  2.1887537862781102e+01  1.2779492008518302e+01  2.3045770146181884e+01  3.4490371821719016e+01  1.1178982696053808e+01  1.3905129056316675e+01  1.5884129104071498e+01  2.4287052813088000e+01  1.1749612890242133e+01  1.1069323322741312e+01  3.4777511194718066e+01  3.6342362255509812e+01  2.2024189250835473e+01  1.2403122908964511e+01  1.2119229851416366e+01  1.1775341552028172e+01  1.2702916543278180e+01  1.4867784323846172e+01  1.3516513895881854e+01  1.8241016402208878e+01  3.5760776481466593e+01  1.4794935516415075e+01  1.4932073495349306e+01  1.8004681761701985e+01  1.4117967798831403e+01  1.5202080210447326e+01  1.7141525682646758e+01  1.0638656205685372e+01  1.4714701391359242e+01  2.1523407483981320e+01  1.9641906718235393e+01  1.4710074439693660e+01  1.0944543543361434e+01  1.1416338296387295e+01  1.1778818387332088e+01  3.6260914207414658e+01  2.1492130417112548e+01  1.2117010559543134e+01  1.0638734757388256e+01  1.9522378110890308e+01  1.9460173423571227e+01  1.1897525244628149e+01  1.2952135811612086e+01  1.2977376514174249e+01  2.6086196056825464e+01  1.2086587123781717e+01  1.5060301517440696e+01  1.0886378600465219e+01  1.5733228515042111e+01  1.7157160089889494e+01  3.7111326151101011e+01  1.1141399545184695e+01  1.3404203960031516e+01  1.4766975361753824e+01  1.5170072410294171e+01  1.7073832083251471e+01  1.7596101576728639e+01  1.8492755634081398e+01  1.2485342316361541e+01  1.1447979169519163e+01  1.1503980736487639e+01  1.1386786558653220e+01  1.2320264563684745e+01  1.2053066252704713e+01  1.1842651648690675e+01  1.4739320839230592e+01  1.4606253238281736e+01  1.6699639846022034e+01  1.4183448719817857e+01  1.2196429471303171e+01  1.4002853878503593e+01  1.4742969713453599e+01  1.3120405688477273e+01  1.2237542081002360e+01  2.1424730192273550e+01  3.1371743141012065e+01  2.7335191924625459e+01  2.9478006208699902e+01  1.1278442777449881e+01  1.1417592481688139e+01  1.2250904778811313e+01  1.4175799263841586e+01  2.6005634613558534e+01  3.8326808993773689e+01  2.8276882411944470e+01  2.4603559118989800e+01  1.1130076880401299e+01  2.8918493012479985e+01  1.6446349666995310e+01  1.2368771900516474e+01  1.3218541431735408e+01  1.3466496642046309e+01  1.0884931623533843e+01  1.0790614614758583e+01  1.0812718527464195e+01  2.2000327425294998e+01  1.1831086884277976e+01  1.2453999002438225e+01  3.8993640774490594e+01  1.1807958723209135e+01  1.0619550894974255e+01  1.0672469290706861e+01  1.0619984574806384e+01  1.1819799521708605e+01  1.1949729712870196e+01  2.2226271249681851e+01  1.4690173363281136e+01  1.1426531240483353e+01  1.3595410107371505e+01  1.3812422578479904e+01  3.8834123073786103e+01  1.9179528032790977e+01  1.2538036180179647e+01  1.0659342306007035e+01  1.1202553906015673e+01  1.1410547494677978e+01  1.0820761348273251e+01  1.5847986080167773e+01  1.6113116503771590e+01  1.4838873721493833e+01  2.6307641897370168e+01  2.9235057996282098e+01  1.2498340475767723e+01  1.6447284663516719e+01  1.5417168956588041e+01  2.8398054206971523e+01  1.8749128719604869e+01  2.4008750000232567e+01  1.1593296841814023e+01  1.2418099329187775e+01  1.3791259226239591e+01  1.2308334650489693e+01  1.3479973020948885e+01  1.5854682787925029e+01  1.2468192653488956e+01  1.9777914221086650e+01  1.1894814139030753e+01  1.1526876569478981e+01  1.3759592858563192e+01  1.1095451070588174e+01  1.0740187372001390e+01  2.2788101011460956e+01  1.3145679841513942e+01  1.1922277934756153e+01  1.9815803033171687e+01  3.9802894662671143e+01  1.7108422739901911e+01  1.8427318510230826e+01  1.9133074002280257e+01  2.3827383359934888e+01  1.3302495221126888e+01  1.3241511390042346e+01  1.4528591434575729e+01  1.3080353356191546e+01  1.5574717032278743e+01  2.0149097572281338e+01  1.1363101400794250e+01  1.0861883933267256e+01  2.1084882483297015e+01  1.3017094096484165e+01  1.2519492007423892e+01  1.2516899007013214e+01  1.2414011675364790e+01  1.1713323746782251e+01  1.3306092559922339e+01  1.1241457636694504e+01  2.2460297480293811e+01  1.1527680524435285e+01  1.5308249719024166e+01  1.1392381136722349e+01  1.1107976696166267e+01  1.1054567034633836e+01  1.9272063491082307e+01  2.0227369358138411e+01  1.1836163576207635e+01  1.6093138542402254e+01  1.3121238082972980e+01  3.1759234209795437e+01  1.5701301282634217e+01  1.3964416546606666e+01  1.3985406146893800e+01  1.6106533681129495e+01  2.4269177979500228e+01  1.9307253458567605e+01  1.2041143853366858e+01  1.0993731630285774e+01  3.1667256168086734e+01  1.4474399073270666e+01  2.5382834640261695e+01  1.9669459441971881e+01  2.5661970547810757e+01  1.1769703118481425e+01  1.1168347489637284e+01  1.3980822257703785e+01  1.4463092567671598e+01  1.3981991170144092e+01  1.4376238640701967e+01  1.1785153278077837e+01  1.1785981034480187e+01  1.1201744998850899e+01  1.0812958025240288e+01  1.4377651268003854e+01  1.1267134616125185e+01  1.1135006283661044e+01  4.0227587493540220e+01  4.0737499923342227e+01  1.7278680372270834e+01  1.7039328648726350e+01  1.1536974709377876e+01  1.1666183795095986e+01  1.6818252576484159e+01  1.0844694251211536e+01  1.0935762652093327e+01  1.0607268671527754e+01  1.7309406607826201e+01  1.8020181831172376e+01  1.2166670782411307e+01  1.1686696940015041e+01  1.1009411774208729e+01  1.0688667453878859e+01  1.0919713170531034e+01  1.2344764687143659e+01  1.3730088538073415e+01  1.4524444595489047e+01  1.4176782869824674e+01  1.3761466570283490e+01  1.3484621818085479e+01  1.2732150356225343e+01  1.5017351251344213e+01  2.1696518271250135e+01  1.1323701823329763e+01  1.0956960524745208e+01  2.2081010218235384e+01  4.1115069876756820e+01  2.9708581331343229e+01  1.1585088662458384e+01  1.2210984150380938e+01  2.1817837809307793e+01  2.5062031064436045e+01  1.0760525904207421e+01  2.4875435767918024e+01  1.1570516952059961e+01  1.3152914166566664e+01  1.1814881816489605e+01  1.2360017949146947e+01  1.1961924683001961e+01  1.2650111263777220e+01  1.9286102570168282e+01  1.3742050249029543e+01  1.5674344027928813e+01  4.1434094114916959e+01  1.4326685193536489e+01  1.4553325719178771e+01  1.3735310956232185e+01  1.2220045743667471e+01  1.2121656381066503e+01  1.6845162723524702e+01  1.4235877318388971e+01  2.1609990020821495e+01  1.1229053808316259e+01  1.0980490134021302e+01  1.3411018264902175e+01  1.4145423442510726e+01  4.1833180040527566e+01  1.3868944113893050e+01  1.0910271458352467e+01  2.2704182424025937e+01  1.9540218484992920e+01  1.3206072961821613e+01  1.1742216632210045e+01  1.6140658234907391e+01  1.5896892241353004e+01  2.6752342135354876e+01  1.2676365612025744e+01  1.2944262012041493e+01  2.4758824658518336e+01  2.7213250704363631e+01  3.3585063045984576e+01  3.1424602867256031e+01  3.2912395194585038e+01  1.7871587225754364e+01  1.4337608903712594e+01  1.5689741890511288e+01  1.4439953921892078e+01  2.2033740917817045e+01  1.1389562877108396e+01  1.3007821450021481e+01  1.0607261194495180e+01  1.5706784145022727e+01  3.2214093857137364e+01  1.7266221375435400e+01  1.7451757821109570e+01  1.5897206555719199e+01  1.5396187230242106e+01  1.4253644822449054e+01  1.4186455027956308e+01  1.4010251688004487e+01  4.2377370520795289e+01  1.1501029540790865e+01  1.9598553612930626e+01  1.2436330998200880e+01  3.3321735631281477e+01  3.4085210484559546e+01  2.7181682105714152e+01  1.3844421942491156e+01  1.5673635657800045e+01  1.1900641260198357e+01  1.1816912197240026e+01  2.1110057290459178e+01  1.9148127320884711e+01  3.5705999519251378e+01  2.1485028444520861e+01  1.6330716308961641e+01  1.2517116752852820e+01  1.3486774844196889e+01  1.3408190241965897e+01  1.2707354421758284e+01  1.2774603210836258e+01  1.1695194178889921e+01  1.5700766711267258e+01  1.5127650816779052e+01  2.2757887547063397e+01  1.5701630753496458e+01  1.7120613683037359e+01  1.7347713280036018e+01  1.9842395838677117e+01  1.7946818645614343e+01  1.9749152134005524e+01  2.0219965031456681e+01  1.3345846293053510e+01  1.2719669553462156e+01  1.6076108958386225e+01  1.7327305705672380e+01  3.1505964698161051e+01  1.2489369705289363e+01  1.5923444627293440e+01  2.4246449279723194e+01  1.4340897236526667e+01  1.0845595590370186e+01  4.2250690561475338e+01  1.1819138723058966e+01  1.1711287835399636e+01  1.0689447539614543e+01  1.1903942235678647e+01  1.9247798534936674e+01  1.5912336679043385e+01  2.4206836158438769e+01  1.1294859547186320e+01  1.1056343643499034e+01  1.2489519281777445e+01  1.0690002113449038e+01  1.1295666854420132e+01  1.4609082752359726e+01  1.4776090163605073e+01  1.2805082136437200e+01  1.8639199169735505e+01  2.0753044470125730e+01  1.7732066649409813e+01  1.3172521996110179e+01  1.4667089678799234e+01  1.1649258998605358e+01  1.8114170212727071e+01  3.3692166797157853e+01  1.3323523475785295e+01  1.6541796306506509e+01  1.6052378352115884e+01  1.8583535362672308e+01  1.5115962359298255e+01  1.4771406564788368e+01  1.2424820556184484e+01  1.3052428322529765e+01  1.0752111761000158e+01  2.8637957211177319e+01  1.1693729194513743e+01  1.1931225131268135e+01  1.2161757721137493e+01  1.9712662779699581e+01  1.2735303430305631e+01  1.6816972628413776e+01  1.1036201149366770e+01  2.5856903536778624e+01  1.7703365221489790e+01  1.2110284952536439e+01  1.4874322207211259e+01  2.3917936082956974e+01  1.4999601919065302e+01  1.0828526636756777e+01  1.0817881488918719e+01  1.1972247842616913e+01  1.5536235477206208e+01  2.3149407098166694e+01  1.3735808438289043e+01  1.4229016246798206e+01  1.0733489603617466e+01  1.1100247993000380e+01  1.4575748091030558e+01  2.5488530524646094e+01  1.1866819873913412e+01  1.1657029388528590e+01  1.1824192877340144e+01  1.2027202741856678e+01  1.1909910198418782e+01  1.1997927328873615e+01  4.2617715675521801e+01  4.2520182313386037e+01  1.4920977606728902e+01  1.6974067481712463e+01  1.4998710602823486e+01  1.6448090836164855e+01  1.1627164266551688e+01  1.1333763686602843e+01  1.2787786179007428e+01  1.2811442811320616e+01  1.2251140944877310e+01  1.9720158025124029e+01  1.4352009220799127e+01  1.1069374383578637e+01  1.0704410243478486e+01  1.1245927208514878e+01  1.1509223610299710e+01  2.9157942213142288e+01  1.6404895252218271e+01  1.5193531141778143e+01  1.4184948451322947e+01  1.7920214269064086e+01  3.6433187156085800e+01  1.9018972302638133e+01  1.1985763105595195e+01  1.1836790037383540e+01  2.3738781752580692e+01  1.0656596858339402e+01  1.0618357595456455e+01  1.0753331650767064e+01  1.1996137949051159e+01  1.2092066483311035e+01  1.1821847815754218e+01  1.2676589421461040e+01  2.0855029532120561e+01  1.1535963189778299e+01  1.0655807479934355e+01  1.1522119368845285e+01  1.1248956464651123e+01  1.1309694959535989e+01  2.9317362802708590e+01  2.4731611011559586e+01  1.1954959849134919e+01  1.2116410400221728e+01  1.2585336681304140e+01  1.4899926745944304e+01  1.1516974699086141e+01  1.3075125174918565e+01  1.1422640304001996e+01  2.8594071827751211e+01  1.1090839329374388e+01  2.8667948887127917e+01  1.1836238299254623e+01  1.3712769355763029e+01  3.5917224524156282e+01  1.9986312576041882e+01  1.2388897848794990e+01  1.5266426459906651e+01  1.1322809894694695e+01  1.1252703582339564e+01  2.4201714854975098e+01  3.2552553716601892e+01  2.8141266951497759e+01  2.9243935293300993e+01  1.0753114389454543e+01  1.1631389930263989e+01  1.8137924899640758e+01  1.2571621908851087e+01  1.4179640232830339e+01  1.2408252773247783e+01  1.0734448898329822e+01  1.3475637032503093e+01  2.3482691747198164e+01  1.2811987686369902e+01  1.3871546208756657e+01  2.4352481798320998e+01  1.4493002613279998e+01  1.2748000300699426e+01  1.4371215784638016e+01  1.3785527430568576e+01  1.4832047050481245e+01  1.4500791366931015e+01  1.4176129180218204e+01  1.3850425798861107e+01  1.4374246621813723e+01  2.4388539935997002e+01  2.0812121317058875e+01  2.8921150867942963e+01  1.1147943659305497e+01  1.6135363351325346e+01  1.6007797796692753e+01  1.1471473058576983e+01  1.7008910625956240e+01  3.6423620803034574e+01  1.1977674955381861e+01  1.3148786546919256e+01  3.0613853120377463e+01  2.0772595036535176e+01  1.1337976780516952e+01  1.1262889169531816e+01  1.0981616100271008e+01  1.1945116341908294e+01  1.2249514948716207e+01  1.2728054514326844e+01  1.0643598792558457e+01  1.1717740064274585e+01  1.7236140343345774e+01  1.4254462140755281e+01  2.1673207527364877e+01  1.3932144791808065e+01  1.1820485974955234e+01  1.2804211027936912e+01  1.2274931422726914e+01  1.5103723947837137e+01  1.0908938247806759e+01  1.6017337477895133e+01  1.1178259557136579e+01  2.8704707795033002e+01  1.8255025989793292e+01  2.5481412894141574e+01  1.1532877230006092e+01  1.0893990429287566e+01  3.4042593063904711e+01  1.0988304476682940e+01  2.2358400159821031e+01  3.5430732359415728e+01  4.3543894487607162e+01  2.9180961941931809e+01  1.2170880296710088e+01  1.3237307022723074e+01  1.1311503247927607e+01  1.2409349687903346e+01  1.5583961270325142e+01  1.1026816758923902e+01  1.0860962642773289e+01  1.0891558074153131e+01  1.0947217376235466e+01  1.5712064804627518e+01  1.5311581678387363e+01  1.0681012884332103e+01  1.1273416394789086e+01  1.7696192129485734e+01  3.7511423215259413e+01  2.9644298779504865e+01  3.4823676828469459e+01  1.1474812937708901e+01  1.4603161152045850e+01  4.3887541637985166e+01  4.3283329469833170e+01  2.3829357006957245e+01  1.4419179236300209e+01  2.0544587790826068e+01  2.3944509008674189e+01  1.1483570865471458e+01  1.3959158314533964e+01  1.1618261128819508e+01  1.1298073435933706e+01  4.3637909228089640e+01  1.2273044791836789e+01  1.1368179332146045e+01  1.1693046567371209e+01  1.1432843734526690e+01  1.9912644756536846e+01  1.3546721758296412e+01  1.2013101923343205e+01  3.2546580305814253e+01  2.4279332090667857e+01  2.1376923574336363e+01  1.2879286497508625e+01  1.8543871621257487e+01  1.1456908127046781e+01  1.8795383689856628e+01  1.6010305042661010e+01  1.0602114550557806e+01  1.0617769990503648e+01  1.6074746949319618e+01  1.4047527644050772e+01  1.1047443370182569e+01  1.2386244077218077e+01  1.7602242815906923e+01  1.1984394599544840e+01  1.2154164731854777e+01  2.0565999267023496e+01  2.0485540955258902e+01  1.5027676613302852e+01  1.1570281500399014e+01  1.0644492221608720e+01  1.1861048472195007e+01  1.5915632245489387e+01  1.0845741902032298e+01  3.0035795258053383e+01  4.3388862843029578e+01  1.2971958977920915e+01  1.0928833012908175e+01  3.8247895600788958e+01  1.3786480129280065e+01  2.6434451170931013e+01  4.4066505129885037e+01  1.9750098712434458e+01  3.1865817719251723e+01  1.1126954823362883e+01  1.1891763829538617e+01  1.8444387929730915e+01  1.0975516021692590e+01  1.5421287387918460e+01  1.8338505928054385e+01  1.4169612618893094e+01  1.3619453402014376e+01  1.3474898531808343e+01  1.2231283401595780e+01  1.3033043793730858e+01  2.1256658955380487e+01  1.6614762023674231e+01  1.2116642515934075e+01  2.2972250903400496e+01  3.6846161485364760e+01  1.5862362541092340e+01  4.4826408307469649e+01  1.4304760300478160e+01  1.8997582230571819e+01  1.5860823166520623e+01  1.8258329588332497e+01  1.8834953857481807e+01  1.8279302889677602e+01  2.2881002877430866e+01  1.3819546676424876e+01  3.1958440286240947e+01  2.9487203212298486e+01  1.3871311738198045e+01  1.0901464461971715e+01  1.1204896191819858e+01  1.3655718690341946e+01  1.2827292489175388e+01  1.4822727613492811e+01  1.4225637154816573e+01  1.4835162992584333e+01  1.5702384357839058e+01  1.6982441603864999e+01  1.7034248959688039e+01  2.6648847252183586e+01  1.1501644506013047e+01  1.1777034307039928e+01  2.1837403000412142e+01  1.4559896536699554e+01  2.0587003073562972e+01  1.3679537192286674e+01  1.1256544762372462e+01  1.8668777140623845e+01  1.6809264016756337e+01  1.5233457506710234e+01  1.3458749318323418e+01  2.7261740885132856e+01  1.3181419163435677e+01  2.0744041686446966e+01  2.6990442861031156e+01  1.4466233331599026e+01  1.3027974427993973e+01  1.2714892141445198e+01  1.2851307775460329e+01  2.7563899004539213e+01  1.2041601506925106e+01  1.2476714602329267e+01  1.2858956080529502e+01  2.4010798212137654e+01  3.8071100084277482e+01  1.1589311104253046e+01  3.1432266957980168e+01  1.3241618465834133e+01  1.3346528845133037e+01  1.2709724303291788e+01  1.6235128281292422e+01  1.4801555040259789e+01  1.3179529316559250e+01  1.4630225733197200e+01  2.3065845023747084e+01  1.1689397381199969e+01  1.4493284174672700e+01  1.2977152837269214e+01  1.4716674264163958e+01  1.2167592057472715e+01  2.0280571626911374e+01  2.0497398931669839e+01  1.3779589985392294e+01  1.9226071591428969e+01  1.7582116098186358e+01  1.3481234258755928e+01  1.0733788305935459e+01  1.2787075007935558e+01  1.3322376324195700e+01  1.8274959715969477e+01  1.2060392697491782e+01  1.1979036931973518e+01  1.4088897062316986e+01  1.2243196809201079e+01  1.3722659993778322e+01  1.3443031275094969e+01  2.3314295127820696e+01  1.4979452868734963e+01  1.3165268741020302e+01  1.1986243490240394e+01  1.6616357638090772e+01  1.6498119991111032e+01  1.5262116524036809e+01  1.5168423861863449e+01  1.2745728488201975e+01  1.2712524332016526e+01  1.3502041090302153e+01  1.1849597797167624e+01  1.8766855380565115e+01  1.6548210775978337e+01  1.5794696498124997e+01  1.3112027267664200e+01  1.0798184631978748e+01  2.6246929047925352e+01  1.1121770575489220e+01  3.2078590229657920e+01  1.1151425556795713e+01  1.1095077664460257e+01  1.5991045117580246e+01  1.2326776388937962e+01  2.4541533941559134e+01  1.0810423496007838e+01  2.1436206859513245e+01  1.0834048686496851e+01  1.3756807090391392e+01  2.1779691456230708e+01  1.3049169033550681e+01  1.1701661374679801e+01  1.4852828717916768e+01  1.1965160652647830e+01  1.1690294779614510e