<?xml version="1.0"?>
<VTKFile type="UnstructuredGrid"  version="0.1"  >
<UnstructuredGrid>
<Piece  NumberOfPoints="2743" NumberOfCells="5270">
<Points>
<DataArray  type="Float64"  NumberOfComponents="3"  format="ascii">-0.12 0.1 0  -0.12 0 0  -0.01986476715483886 0 0  -0.01986476715483886 0.002321858282504599 0  -0.01879385241571817 0.006840402866513377 0  -0.01670975622825873 0.01099017956141612 0  -0.01372483275737467 0.01454747283146098 0  -0.009999999999999995 0.01732050807568877 0  -0.005736064654221804 0.01915979024630978 0  -0.001162896578209515 0.01996616316542536 0  0.003472963553338608 0.01969615506024416 0  0.007921595320783138 0.01836432213760548 0  0.01194317183405572 0.01604246385510088 0  0.01532088886237956 0.01285575219373078 0  0.01787265280646825 0.008975983604009244 0  0.01946089741159648 0.004612317414848803 0  0.02 0 0  0.12 0 0  0.12 0.1 0  0 0.1 0  0.06 0.1 0  -0.06 0.1 0  0.12 0.05 0  0.06999999999999999 0 0  -0.12 0.05 0  -0.06993238357741943 0 0  0.06954545454545454 0.05045454545454546 0  -0.05256818197129183 0.04876858210896794 0  0.03 0.06852793994995832 0  -0.01060230953534651 0.06012868531377026 0  -0.08590602075287224 0.07008722490344668 0  -0.08700383268980955 0.03297312682365156 0  0.09 0.1 0  0.09454951298701297 0.02545048701298702 0  0.04421726329698947 0.02908215157121827 0  -0.03 0.1 0  -0.09 0.1 0  0.03 0.1 0  0.094941534914361 0.0689649209486166 0  -0.045 0.07602120282224097 0  0.0137000972673793 0.04576151173676769 0  -0.04489857536612915 0 0  -0.02795527007175781 0.03755044438085961 0  -0.06241371758055736 0.02479853554667227 0  0.06931814492325854 0.02522317739079102 0  0.0562106357694593 0.07357769546517523 0  -0.09496619178870971 0 0  0.12 0.025 0  0.095 0 0  -0.12 0.025 0  -0.12 0.07500000000000001 0  0.12 0.07500000000000001 0  0.045 0 0  -0.0228302666921874 0.07883391093803507 0  0.09815763663419913 0.04717696422689629 0  0.04642316516164364 0.05216224004895101 0  0.015 0.08426396997497916 0  0.07685335020605615 0.08199579006851358 0  -0.03212624651891543 0.05871373573766032 0  -0.06454151582324234 0.06677080404579981 0  -0.007428983740834363 0.03973215840314246 0  -0.04143162460864844 0.02103341629232999 0  -0.07788632568368571 0.05127672197436213 0  -0.09902623975019198 0.05337871787903269 0  -0.075 0.1 0  -0.1014173577311382 0.0832008292773658 0  0.105 0.1 0  0.008793975861786027 0.06520032249375621 0  -0.003877486809385651 0.08128666365361911 0  0.04056005001669608 0.08426396997497916 0  -0.07890609788649815 0.0162597993618741 0  -0.1010699031813867 0.01892186545593956 0  0.08267954418645374 0.03858457665398622 0  0.08249999999999999 0.01250797385719048 0  0.1070573481575616 0.01294265184243836 0  -0.1072273189424094 0.0375 0  0.05487128127324764 0.0148172916808382 0  -0.07306292723448589 0.08234923187849305 0  0.02604316659281994 0.02760414390118441 0  0.03422315740010771 0.01291039266157378 0  0.02953764603397802 0.05164069645856708 0  0.05711184749668567 0.0394951990120913 0  0.1048403709991175 0.08290422259947053 0  0.07836733468041428 0.06502779237175893 0  -0.015 0.1 0  0.107641636468974 0.05970823073603768 0  0.12 0.03750000000000001 0  -0.07203199631147464 0.0369378911801824 0  -0.05383214135241159 0.01227496304049853 0  -0.12 0.0625 0  -0.105 0.1 0  0.075 0.1 0  0.015 0.1 0  -0.045 0.1 0  0.045 0.1 0  -0.10518488525811 0.06789183644845204 0  -0.04335959578005873 0.03636269925572742 0  -0.05884641539443965 0.08000585119468683 0  -0.02074261661302542 0.04996461834162433 0  -0.02653136512200803 0.0222624586885067 0  -0.08714978711530966 0.08578346506967012 0  -0.03506452979410112 0.08648708658184591 0  -0.04620947545617006 0.0616799095273325 0  0.0006562636529589983 0.05143519384945657 0  0.1057204605480501 0.03475816363918364 0  0.09074280792825767 0.08565566471894244 0  0.005667439598789157 0.03387418246945268 0  -0.03238167126048401 0 0  0.0383080886578613 0.04129238651963005 0  0.08505369180647195 0.05254495235246789 0  -0.1074830958943549 0 0  -0.12 0.0125 0  0.05414542183412842 0.08735675763730583 0  0.04308500944676981 0.07115822817126308 0  0.0649349230807125 0.06320229510900416 0  -0.05637247339858926 0.03632415216907382 0  -0.01542434356580282 0.02929607297537314 0  0.02778002500834804 0.08142901444438948 0  -0.06542774243586742 0.04799884169932159 0  -0.06661544991358234 0.0127173865239021 0  0.08192808295131557 0.02597463862592918 0  0.07006960615839669 0.03783311541884806 0  0.06988230421815755 0.01261762329223161 0  -0.12 0.08750000000000001 0  -0.08244928768306457 0 0  -0.05741547947177429 0 0  -0.03984291085584598 0.04859364585838993 0  0.08249999999999999 0 0  0.12 0.0625 0  -0.12 0.03750000000000001 0  0.12 0.0125 0  0.0325 0 0  0.0575 0 0  0.1075 0 0  0.12 0.08750000000000001 0  0.02042070411167864 0.06034025931465875 0  0.05702213417260474 0.02706267745085339 0  0.0675 0.09013045458016318 0  0.09478643990600856 0.0122865785926504 0  -0.04904630236735645 0.08801060141112049 0  0.02613192868361687 0.0398635327923046 0  -0.09569137037305205 0.04159910065917647 0  0.05140611894455763 0.0628291923813368 0  0.1085809652542695 0.07158881227331852 0  0.05796589338150855 0.05105903259253412 0  0.03841143349411784 0.06054564265388553 0  -0.02947166435407259 0.01113520957350828 0  -0.1102478054683027 0.05625 0  -0.09068017366517905 0.01182794374687028 0  -0.01434600857542353 0.08772663538203848 0  -0.03362945317777148 0.07517582904977035 0  -0.01235387050651601 0.0723330924144738 0  -0.02307888867457602 0.06674121501662693 0  -0.002185408069912574 0.06756456274836646 0  0.0678638500046832 0.07452078468888843 0  0.08597040057425252 0.07558162872540394 0  0.09674588960513322 0.05809991882890109 0  0.1094709655577269 0.04555436451412986 0  0.09473770132491341 0.03658207429318428 0  -0.06454868296360231 0.08970720561340952 0  0.1088432154030167 0.02400081163981114 0  -0.07748216799376378 0.02726807518039781 0  0.0075 0.09213198498748959 0  0.01849963805527029 0.07258270415679953 0  0.0225 0.09213198498748959 0  -0.07477959581424944 0.07129038985899076 0  -0.05389685222033951 0.06954987308797576 0  -0.05952130701477828 0.05712689877479761 0  -0.09084078800149091 0.02274804774342801 0  -0.09837161430440977 0.03085986409994825 0  -0.05131093786741553 0.0263250162658456 0  0.01635618606258252 0.03530907600454269 0  -0.03460613037873773 0.02922068783924693 0  -0.04043226315035484 0.01006625299372829 0  0.08175024910257063 0.09159737271826002 0  -0.09494035380298299 0.06367583527464522 0  -0.0886934906578859 0.04994210372431981 0  -0.02490130542947547 0.09038352188878838 0  0.04417108737523257 0.01793664269923905 0  -0.003940932065510782 0.02996170313966536 0  -0.01783357510351885 0.03997209276407525 0  -0.009556322084365085 0.04984630266759408 0  -0.09566755421412014 0.074271403467777 0  0.0355203970594753 0.02354533265972011 0  0.006555555071563847 0.07647100871020274 0  -0.07937685857812513 0.06175606142440594 0  -0.082228823034201 0.04201720146426499 0  -0.06983948840172999 0.05776693996935201 0  -0.09555085505908593 0.09149315155487603 0  -0.1098516392886323 0.0771584086134595 0  0.0975 0.1 0  0.01159727503865655 0.05556931308228881 0  -0.1115659278883601 0.01875 0  -0.1012246438415323 0.008426566493923617 0  0.01474516449273796 0.0255393740673827 0  0.08779480154260712 0.06219573447921576 0  -0.1125 0.1 0  -0.109677715301956 0.0898066291811736 0  0.1125 0.1 0  -0.1076436806656361 0.02771938223489072 0  -0.1109003748179492 0.009075404417277109 0  -0.03013785075543634 0.04712089514258909 0  -0.004952464847218618 0.0912677883600678 0  -0.1065795284902037 0.04722264329381553 0  0.04842831953664987 0.07898377417315099 0  0.03252098192319938 0.09028046125939154 0  0.02476218534733019 0.01628634550873906 0  0.04791904264346727 0.04258131505029045 0  0.06144185941573184 0.08140605316446399 0  0.1108170457022867 0.09049022742137205 0  -0.08249999999999999 0.1 0  -0.07849279483093181 0.09068500987040669 0  0.09901040145429967 0.0905247702494426 0  -0.07619083563024201 0.007152163970009891 0  -0.03784209605914159 0.06649148111429766 0  0.03557615988040569 0.07650767001919569 0  0.03302905362294855 0.03368357951329398 0  0.001528049998133968 0.0421884697145129 0  -0.06677219502603519 0.0755735126223121 0  -0.07078299185927128 0.02093806600642789 0  0.07624698700554428 0.01898789084580359 0  0.0425071772133816 0.008872273040118464 0  0.06222675218673776 0.01983691994242202 0  0.05125 0.006533019494560529 0  -0.08112674022156063 0.07793832028046994 0  0.0894563302875119 0.04461415956113914 0  0.07600555403016987 0.04440122631805228 0  0.1011730931788228 0.01956623203424818 0  0.08875791189114002 0.01876216216110217 0  0.07625 0.006253986928595243 0  0.10125 0.00625378014893175 0  0.06159289116562519 0.008367939956509781 0  0.1133219866490167 0.006678013350983326 0  0.12 0.03125 0  0.08875 0 0  0.09447377394606553 0.07772073910541109 0  0.1125347363168419 0.07917181005820358 0  -0.0360489221788708 0.04088174671649498 0  0.07238835401788725 0.0586903785336876 0  0.07770534388963661 0.0735202678075017 0  -0.02352204721963873 0.05812853133009549 0  0.02771469012026706 0.007208889738796465 0  0.06289457418076626 0.0332368862735679 0  0.02997504279709136 0.060078672135782 0  0.0379740367310045 0.0521076669766706 0  0.02209772318747019 0.04741115745969623 0  -0.0375 0.1 0  -0.04152152214341864 0.09214855581173653 0  0.07670804270236463 0.03261307516989712 0  0.08846339346732941 0.03112076208171376 0  0.06426407185079112 0.0439136177978413 0  0.05037140838704721 0.03465168226171754 0  -0.1136136594712047 0.0428084044537857 0  -0.113526383098718 0.06949936267301912 0  -0.002312773411525084 0.05922711625796673 0  0.04612867834591947 0.09118715625326625 0  0.0525 0.1 0  -0.0525 0.1 0  -0.05642436013397981 0.09226832717651308 0  0.12 0.01875 0  0.0375 0.1 0  -0.1021974954105155 0.06059626541185022 0  0.04989633308677061 0.02348577305550612 0  -0.12 0.03125 0  0.003928287502683688 0.08448841352572942 0  0.1030125400079595 0.05335714910633224 0  0.1025673057510353 0.0660868
[...]
<PointData  Scalars="f_29"> 
<DataArray  type="Float64"  Name="f_29"  format="ascii">1.1797645585025817e+01  1.3773206802148451e+01  5.0000000000000000e+01  4.9999999999999993e+01  5.0000000000000000e+01  5.0000000000000000e+01  5.0000000000000000e+01  5.0000000000000000e+01  5.0000000000000000e+01  5.0000000000000000e+01  5.0000000000000000e+01  5.0000000000000000e+01  5.0000000000000000e+01  5.0000000000000000e+01  5.0000000000000000e+01  5.0000000000000000e+01  5.0000000000000000e+01  1.3776924993872379e+01  1.1797680853064346e+01  1.7451122513394491e+01  1.4279232898062157e+01  1.4277337940889010e+01  1.2755788563209045e+01  1.9902226098748457e+01  1.2756715100637640e+01  1.9918823022015669e+01  1.6413419331122046e+01  1.9583181797805651e+01  1.9388567387534682e+01  2.3277572115513578e+01  1.3355359251138156e+01  1.5282686144023717e+01  1.2462746441908632e+01  1.4749493665007547e+01  2.5871919629138592e+01  1.6437306181753144e+01  1.2461698623623628e+01  1.6438334387503833e+01  1.2858694419328456e+01  1.6706317490358813e+01  2.8489577846044888e+01  2.9660573329105180e+01  2.8823771900209454e+01  2.0708947998192357e+01  1.8916129105032834e+01  1.5786709790673578e+01  1.5189936700494613e+01  1.3469492685818743e+01  1.5188937041616489e+01  1.3467929548935004e+01  1.2076459942255578e+01  1.2076568626720388e+01  2.9609297692289147e+01  1.8305353041130417e+01  1.3551460385527145e+01  2.0168748206562281e+01  1.8053051893513281e+01  1.3483977023605725e+01  2.1218112769993301e+01  1.5493806332349012e+01  3.2431472420847605e+01  2.8871226856161236e+01  1.5220630274412851e+01  1.3242591412017115e+01  1.3255743640968154e+01  1.2215448955866108e+01  1.1966790191403238e+01  2.1890279242874382e+01  1.8738609824008471e+01  1.6344955016874049e+01  1.7410614853916719e+01  1.4338189535569946e+01  1.5511602816781199e+01  1.6875777085070979e+01  1.4049182503450616e+01  1.3413938408339575e+01  2.4212534874234915e+01  1.3741147169253750e+01  3.3846790812558034e+01  3.4698646968672904e+01  2.3549814602696092e+01  2.0108763443842609e+01  1.2125569144867185e+01  1.4216147390226300e+01  1.7173485945692679e+01  1.2647249766234484e+01  1.3137725418802912e+01  1.7306910062189047e+01  2.4857904229196009e+01  1.2383427841053559e+01  1.1965477935399921e+01  1.3255942667993040e+01  1.7178638942200507e+01  1.5397197461011116e+01  1.5398826250256777e+01  1.2470660081545121e+01  2.4404914119430554e+01  1.5029507332027555e+01  2.5660468786929407e+01  3.6071828574499456e+01  1.2756359722286321e+01  1.6616003171049801e+01  1.8502258884218165e+01  2.6880189101744090e+01  1.3576691210378025e+01  1.2582044305559766e+01  3.6394759173317574e+01  3.7716032513574042e+01  2.4571546107051468e+01  1.4354832551890283e+01  1.4123003222696109e+01  1.3692155708630914e+01  1.5017204933970991e+01  1.7499753726088247e+01  1.5776835904483889e+01  2.0780655018484691e+01  3.7255870324312234e+01  1.7631474906968869e+01  1.7318349528366173e+01  2.0509133846300294e+01  1.6391135814391106e+01  1.7586057090080136e+01  1.9627897392434615e+01  1.1872237344629283e+01  1.7070111001720591e+01  2.3985136690578894e+01  2.2285184208327316e+01  1.7064690828741032e+01  1.2384078404090969e+01  1.3138518262333644e+01  1.3696566457459102e+01  3.7641884478523906e+01  2.3954612179620653e+01  1.4120665762580639e+01  1.1872580763385628e+01  2.2344148852016424e+01  2.1982689034507427e+01  1.3881959527138015e+01  1.5090640449140661e+01  1.5403786998734120e+01  2.8438731747192687e+01  1.3973468801442856e+01  1.7590143509937629e+01  1.2278611881149176e+01  1.8220791371814034e+01  1.9872320768538401e+01  3.8418671448853061e+01  1.2685139584099723e+01  1.5608874491692676e+01  1.7737857375772609e+01  1.7937975750868230e+01  2.0035934090728492e+01  2.0464970593962651e+01  2.1440987535028906e+01  1.4571072022543623e+01  1.3126311293444875e+01  1.3180553217045627e+01  1.3061323574122186e+01  1.4277098429556570e+01  1.4109623788572355e+01  1.3737604763194966e+01  1.7076890297648340e+01  1.7613878704032338e+01  1.9627807568072171e+01  1.7068307268248233e+01  1.4154666023848245e+01  1.6440788637370165e+01  1.7164805507184788e+01  1.5263592040793965e+01  1.4194823806773801e+01  2.3914230205412508e+01  3.3300818191196946e+01  2.9534347066421589e+01  3.1466694075400039e+01  1.2934815922775565e+01  1.3057822123555406e+01  1.4163060116876103e+01  1.7033097369798043e+01  2.8256717419304064e+01  3.9577008340600884e+01  3.0488082269205862e+01  2.7156343103018035e+01  1.2649330756130658e+01  3.0978249910179201e+01  1.9447942118533138e+01  1.4329533533461001e+01  1.5344130384590297e+01  1.5676539715861795e+01  1.2292128787535265e+01  1.2124640248241658e+01  1.2175050955862842e+01  2.4733407099605063e+01  1.3742281978299296e+01  1.4514633578522291e+01  4.0155119655828052e+01  1.3592122540070205e+01  1.1839377152498402e+01  1.1930613575786008e+01  1.1840346671679271e+01  1.3694264505183567e+01  1.3911337911486626e+01  2.4826919123959016e+01  1.7707086976194283e+01  1.3106539429610068e+01  1.6082929826973345e+01  1.6555977701215209e+01  3.9982259478873800e+01  2.1766063603286277e+01  1.4717847521037498e+01  1.1908374555614664e+01  1.2825274353833032e+01  1.3140088902966589e+01  1.2183254086396545e+01  1.8281659348527135e+01  1.8837182849585364e+01  1.7574474213011840e+01  2.8599464330697291e+01  3.1401201816907111e+01  1.4599663984007313e+01  1.8906232460480510e+01  1.7817337443556973e+01  3.0468873470654611e+01  2.1262891583969886e+01  2.6364182651260727e+01  1.3349692063624008e+01  1.4378327911536628e+01  1.6013647784507612e+01  1.4317361477591922e+01  1.5683475040580911e+01  1.8289066815713788e+01  1.4534105691808044e+01  2.2281050524084208e+01  1.3848788119604059e+01  1.3311461870063937e+01  1.6017674535252418e+01  1.2602978054645927e+01  1.2042946435403001e+01  2.5308705121487286e+01  1.5291696148434085e+01  1.3793435791037240e+01  2.2599315031159037e+01  4.0841609867286294e+01  1.9606134839894519e+01  2.1206839290662892e+01  2.1811970962475517e+01  2.6378206777241918e+01  1.5940312833149921e+01  1.5813107992319821e+01  1.6841692476274758e+01  1.5197686862307553e+01  1.8008297804960346e+01  2.2691208507124671e+01  1.3042626893241360e+01  1.2243787945367799e+01  2.3899572071735633e+01  1.5495388503454761e+01  1.4836609448137459e+01  1.4833543937353710e+01  1.4654155357978324e+01  1.3597616097927201e+01  1.5944275162130872e+01  1.2813577322718121e+01  2.4907793940137296e+01  1.3312233862829773e+01  1.8329495492668880e+01  1.3039262524649486e+01  1.2614957681933767e+01  1.2563670235605192e+01  2.1779950539165206e+01  2.2722912659321782e+01  1.3629945500883800e+01  1.8553095578943196e+01  1.5237333591132673e+01  3.3571789948535589e+01  1.8689711296605690e+01  1.6211902778948257e+01  1.6232071408221479e+01  1.8548568737489305e+01  2.6652582587721625e+01  2.1904000661758772e+01  1.4031882487724651e+01  1.2442228386508976e+01  3.3536183763102237e+01  1.6803655370421477e+01  2.7667780887209375e+01  2.2177708329616578e+01  2.7921684780651880e+01  1.3538206383102237e+01  1.2734465993480679e+01  1.6856632466789353e+01  1.7424687564472514e+01  1.6857985204057098e+01  1.7377944264198270e+01  1.3744680880922466e+01  1.3745849597106419e+01  1.2824414752208536e+01  1.2175246659424129e+01  1.7379005564500115e+01  1.2866083504034084e+01  1.2707988145235186e+01  4.1250576937579766e+01  4.1693937306798396e+01  1.9780240484969305e+01  1.9845371733898890e+01  1.3309161429882046e+01  1.3548257271355835e+01  1.9338761812747190e+01  1.2219366221869540e+01  1.2363635117631437e+01  1.1818024118396806e+01  1.9938938621006567e+01  2.0715680120708956e+01  1.4108399822579759e+01  1.3467718730258751e+01  1.2480318492359254e+01  1.1956927304523461e+01  1.2328511860599878e+01  1.4283803028399078e+01  1.6481141405598198e+01  1.7349926809259838e+01  1.6841707893222420e+01  1.6020022400466210e+01  1.5904763896368259e+01  1.4810060240652813e+01  1.7631638208254145e+01  2.4469707815347835e+01  1.2978443788301911e+01  1.2414582853523553e+01  2.4792395923347232e+01  4.2066784923662055e+01  3.1820405592305445e+01  1.3403918246728194e+01  1.4275821069650252e+01  2.4281259244906529e+01  2.7508584871838323e+01  1.2081011457777453e+01  2.7412542601783489e+01  1.3359067479092021e+01  1.5429076543900456e+01  1.3725917287526343e+01  1.4308878197836812e+01  1.3794128091576978e+01  1.4727613218228653e+01  2.2138330942442188e+01  1.5967475384253454e+01  1.8217597478381499e+01  4.2348736657319478e+01  1.6675957260130584e+01  1.6975762385519015e+01  1.5987109515963835e+01  1.4373069960940832e+01  1.4109191590982178e+01  1.9848735387177054e+01  1.7160432322366923e+01  2.4137704160733755e+01  1.2831470179589640e+01  1.2436029108104112e+01  1.6030125126794790e+01  1.6540723027736661e+01  4.2687967334099717e+01  1.6125075036060551e+01  1.2321748578773182e+01  2.5262959531529674e+01  2.2163340536870919e+01  1.5459412038192784e+01  1.3518549828551526e+01  1.8989154069162421e+01  1.8442734448822172e+01  2.9140096783255355e+01  1.4700434857758349e+01  1.5017351745685620e+01  2.7078964236278747e+01  2.9513010178824207e+01  3.5327265414570761e+01  3.3246364105545801e+01  3.4605862084014390e+01  2.0840557812059100e+01  1.6848931026885950e+01  1.8427242041797179e+01  1.7425983145287443e+01  2.4730594006213167e+01  1.3086713533031443e+01  1.5344828811227565e+01  1.1818229106203020e+01  1.8343209439991206e+01  3.4073261885324960e+01  1.9839842367616509e+01  1.9946603240462863e+01  1.8766278893035636e+01  1.8316039829897925e+01  1.6991570306939174e+01  1.6807236396977611e+01  1.6414919072006043e+01  4.3155906478971922e+01  1.3247962995593808e+01  2.2159706332102076e+01  1.4421488947676904e+01  3.5006920432692723e+01  3.5672192426067170e+01  2.9511558384037688e+01  1.6092022884913877e+01  1.8149063845858997e+01  1.3860074649089572e+01  1.3754498268417697e+01  2.3803060901823994e+01  2.1677308484476644e+01  3.7217270223012036e+01  2.3990086619703533e+01  1.8786538922533897e+01  1.4813073916984576e+01  1.6054895553812933e+01  1.5886346158527523e+01  1.5003276808435221e+01  1.5185336116227550e+01  1.3551166078995459e+01  1.8118369124877159e+01  1.7500855172221641e+01  2.5174056368912531e+01  1.8124111285813989e+01  1.9604841920653847e+01  1.9840499058634137e+01  2.2535623211607440e+01  2.0785759534020549e+01  2.2600634477307462e+01  2.2971687681838315e+01  1.5549566139890720e+01  1.4817662234513993e+01  1.9050243841718050e+01  2.0291210132418989e+01  3.3320360543681517e+01  1.4562161231117756e+01  1.8362213998730120e+01  2.6587599105710677e+01  1.6648001605525401e+01  1.2220515790041075e+01  4.3041937906327910e+01  1.3757267353215614e+01  1.3594895248456476e+01  1.1959062900421076e+01  1.3864046426929541e+01  2.1755447413759576e+01  1.8350475959810431e+01  2.6550312713294147e+01  1.2947946990966337e+01  1.2565896390009826e+01  1.4562198094117603e+01  1.1959720664506122e+01  1.2949270213222027e+01  1.7497794011818947e+01  1.7799820778761049e+01  1.4905194103718124e+01  2.1174765013221176e+01  2.3247257297208044e+01  2.0238188807574769e+01  1.5629965429549422e+01  1.7016683817786941e+01  1.3528011157484345e+01  2.1007302975606436e+01  3.5380046826615057e+01  1.5492854588477018e+01  1.9539269220523234e+01  1.9002019469069463e+01  2.1511965524582816e+01  1.8123008703686036e+01  1.7687945830433815e+01  1.4471587109891939e+01  1.5213887427921176e+01  1.2062215492739886e+01  3.0770577131181547e+01  1.3458163170047229e+01  1.3794641671241127e+01  1.4122184234054298e+01  2.2604195143708012e+01  1.4773971059053972e+01  1.9469521267676939e+01  1.2526998503179836e+01  2.8154040420860877e+01  2.0617860382623959e+01  1.4109312905906442e+01  1.7388235482027117e+01  2.6294736889212569e+01  1.7684404497771720e+01  1.2185267390887777e+01  1.2172622624910383e+01  1.3903998871861267e+01  1.8537745511138592e+01  2.5822706777264230e+01  1.5951777555860112e+01  1.6507580512423054e+01  1.2034572908938809e+01  1.2654997339015695e+01  1.6906631921965442e+01  2.7840471694050272e+01  1.3732792051770197e+01  1.3427464853985551e+01  1.3610445589681751e+01  1.3971968385347909e+01  1.3801575432694319e+01  1.3846926170257575e+01  4.3412930078673888e+01  4.3286329260047729e+01  1.7284670763615043e+01  1.9741491090266262e+01  1.7401095262705077e+01  1.8954201291617547e+01  1.3452548711048131e+01  1.2960455136186505e+01  1.4859134997978989e+01  1.5017988237702520e+01  1.4230691073785353e+01  2.2225669658024604e+01  1.6656865589440624e+01  1.2555570470469121e+01  1.1983547284935755e+01  1.2862992377541419e+01  1.3214831713324079e+01  3.1268677785522037e+01  1.9310726523458946e+01  1.8026637386084538e+01  1.6489240500532947e+01  2.0425115072666312e+01  3.7831887238478075e+01  2.1743806389566561e+01  1.4041483666376026e+01  1.3773584512499484e+01  2.6182422580767373e+01  1.1904540136823309e+01  1.1837507701356026e+01  1.2072462652249927e+01  1.3944147176713024e+01  1.4052529891317294e+01  1.3645284751735163e+01  1.4773620598101365e+01  2.3365061603107996e+01  1.3281945936385760e+01  1.1903423792856985e+01  1.3253244226533887e+01  1.2847906812439396e+01  1.2915127924337877e+01  3.1330277899176949e+01  2.7071892485772540e+01  1.3825675944728514e+01  1.4008503200964654e+01  1.4637874756845838e+01  1.7251177102484377e+01  1.3199469763671168e+01  1.5223384682101159e+01  1.3172780153484924e+01  3.0679280536851966e+01  1.2598865075162619e+01  3.0783574610424072e+01  1.3767316456384904e+01  1.5955415363020297e+01  3.7348257156688852e+01  2.2498592437253947e+01  1.4554309298812139e+01  1.7652930574554901e+01  1.2924864799715168e+01  1.2829988768672328e+01  2.6650847853469237e+01  3.4284257645914984e+01  3.0239825456187546e+01  3.1247224104788582e+01  1.2071934983019109e+01  1.3360586418529804e+01  2.0710493799752456e+01  1.4597271768816730e+01  1.6696156712419064e+01  1.4595939900151093e+01  1.2033988990250320e+01  1.6157588399674403e+01  2.5875379171145394e+01  1.4857553109342248e+01  1.6693303330966440e+01  2.6751778943239366e+01  1.7250643607212158e+01  1.5155739275525292e+01  1.6716665819719044e+01  1.6079388102490629e+01  1.7824744721787511e+01  1.7518361794225498e+01  1.7100340793423275e+01  1.6656278314054607e+01  1.7357795493525973e+01  2.6936567941966928e+01  2.3432450874334243e+01  3.1056583544878780e+01  1.2718294225210311e+01  1.8594396306300464e+01  1.9026063866122239e+01  1.3135683025421221e+01  1.9890835045042163e+01  3.7863675021746275e+01  1.4031953137539213e+01  1.5717285767661602e+01  3.2545854797692968e+01  2.3361387956784121e+01  1.2956191968059677e+01  1.2839683550933419e+01  1.2428453590574160e+01  1.3785330755235686e+01  1.4196715988295557e+01  1.4767008566302623e+01  1.1880736807546194e+01  1.3587859954623012e+01  1.9965598715596791e+01  1.7071212007326238e+01  2.4130696562770780e+01  1.6170827813630250e+01  1.3744406924350935e+01  1.4928046936149581e+01  1.4307165016584204e+01  1.8127861629039874e+01  1.2313811950621819e+01  1.8458593819468689e+01  1.2717115572467948e+01  3.0799919439499700e+01  2.1074772734982261e+01  2.7923768969132230e+01  1.3222670961450303e+01  1.2288928089852519e+01  3.5734251697800822e+01  1.2438970683466481e+01  2.5073626342136460e+01  3.6935685394747601e+01  4.4238639400319208e+01  3.1326058517612626e+01  1.4245238727633840e+01  1.5369822755558873e+01  1.2940152156384169e+01  1.4366151221245088e+01  1.8390732570213672e+01  1.2524790267502203e+01  1.2246041178799306e+01  1.2309068248661770e+01  1.2400879982635725e+01  1.8220243109102849e+01  1.8266731469321435e+01  1.1944391018654755e+01  1.2935756937531361e+01  2.0254621892156855e+01  3.8848631966043605e+01  3.1622841126649590e+01  3.6356518197578005e+01  1.3189775670838907e+01  1.7537668914530400e+01  4.4522636728327768e+01  4.3974686779624697e+01  2.6349919093834263e+01  1.7432785872509779e+01  2.3375428159674581e+01  2.6536908153278642e+01  1.3223377525813408e+01  1.6207136903994478e+01  1.3442010582840103e+01  1.2952521266120879e+01  4.4316105661328258e+01  1.4267397458381314e+01  1.3035208162674007e+01  1.3524613685836689e+01  1.3159720197716195e+01  2.2787425783328796e+01  1.6217355823627081e+01  1.3870920786147288e+01  3.4379682801882005e+01  2.6753192994452718e+01  2.3983879489411191e+01  1.4967841667457947e+01  2.1170681545159049e+01  1.3227470866257008e+01  2.1693374905392169e+01  1.8805673600882038e+01  1.1808787206278128e+01  1.1836698051115546e+01  1.8778354984651024e+01  1.6829244530091970e+01  1.2547231250726522e+01  1.4481673304712411e+01  2.0575190865791566e+01  1.3959736173698753e+01  1.4157624622559526e+01  2.3145438966482352e+01  2.2978249106141746e+01  1.7407488935568615e+01  1.3268997421873252e+01  1.1882471903062456e+01  1.3808204903011394e+01  1.8581991295289310e+01  1.2230110591676866e+01  3.1974091789999513e+01  4.4090072755145123e+01  1.5117646075482108e+01  1.2358811455979415e+01  3.9438529693482025e+01  1.6473982071647921e+01  2.8849809317684564e+01  4.4678555622177342e+01  2.2291134025147386e+01  3.3742353034361564e+01  1.2677133235968538e+01  1.3702494446930903e+01  2.1356576127828301e+01  1.2421341280068997e+01  1.7825750193509009e+01  2.0947868979540505e+01  1.6733100368024655e+01  1.6166065115619375e+01  1.5891036451098193e+01  1.4186965203559536e+01  1.5381885101438153e+01  2.3729260882257773e+01  1.9084348706177295e+01  1.3992441397010632e+01  2.5563244735925217e+01  3.8178786315155968e+01  1.8291490404405543e+01  4.5366249037549792e+01  1.6606113427666052e+01  2.1561376994218275e+01  1.8288412687204655e+01  2.0765455068960382e+01  2.1344287540668414e+01  2.0786313122282298e+01  2.5323272038130892e+01  1.6396025943639220e+01  3.3862158232576107e+01  3.1628439063151774e+01  1.6216992720442573e+01  1.2311690581106079e+01  1.2777420240751278e+01  1.6005257443797380e+01  1.4892486206237434e+01  1.7610045761214863e+01  1.6905714569361187e+01  1.7516472693981722e+01  1.8118354789711720e+01  1.9462763198620681e+01  1.9517888193994761e+01  2.8843105313743457e+01  1.3202023423198600e+01  1.3624338396828161e+01  2.4502589270437532e+01  1.7581204608611859e+01  2.3366130274752688e+01  1.5904385864702453e+01  1.2883363295307548e+01  2.1177686071661238e+01  1.9486315750416448e+01  1.7706161030352259e+01  1.6141477807786121e+01  2.9599327152031364e+01  1.5308457389248286e+01  2.3528459137423262e+01  2.9168109140978167e+01  1.7473278621396545e+01  1.5210938679897389e+01  1.4905749076635313e+01  1.5019791778682864e+01  2.9873137499221002e+01  1.3903889946833701e+01  1.4446277828469695e+01  1.4917461501158650e+01  2.6579151409838779e+01  3.9317114585207896e+01  1.3400286328968848e+01  3.3276006062608523e+01  1.5391562890901120e+01  1.5495623220249630e+01  1.4775244472478903e+01  1.8685508702294555e+01  1.7148791046058772e+01  1.5367034905267973e+01  1.7162003495031712e+01  2.5471091192983408e+01  1.3556414740845513e+01  1.7424619292127190e+01  1.5260866586222157e+01  1.7712478818727341e+01  1.4183560599432107e+01  2.2775467975262650e+01  2.3160572889199162e+01  1.6034766382441028e+01  2.1742856106037991e+01  2.0081452628489103e+01  1.5673103928526839e+01  1.2033665136265125e+01  1.5167462808056689e+01  1.5859197950780274e+01  2.0783057029717636e+01  1.4007555528067330e+01  1.3946053409210922e+01  1.6383624552131291e+01  1.4263216267653279e+01  1.5941825122086330e+01  1.5607418078634058e+01  2.5761404876525997e+01  1.7348749569129666e+01  1.5329708668500619e+01  1.3962724478976616e+01  1.9086878111848240e+01  1.8962912277356850e+01  1.7660205070008814e+01  1.7557006942554612e+01  1.4861180655626143e+01  1.4817265688060907e+01  1.5731920561832291e+01  1.3797061884771860e+01  2.1608069615424331e+01  1.9122572452481105e+01  1.8258073191774507e+01  1.5676012288586691e+01  1.2138900892315116e+01  2.8501491537684920e+01  1.2643985494991707e+01  3.3894235834283343e+01  1.2680542305598847e+01  1.2611187924405337e+01  1.8579691133167355e+01  1.4555831826993385e+01  2.6974726162322089e+01  1.2160956074162343e+01  2.4222309526478526e+01  1.2210302785944339e+01  1.6010923928600661e+01  2.4282458471809594e+01  1.5182169967381332e+01  1.3528384174158555e+01  1.7328106818337037e+01  1.3827561326627396e+01  1.3462610109876767e