<?xml version="1.0"?>
<VTKFile type="UnstructuredGrid"  version="0.1"  >
<UnstructuredGrid>
<Piece  NumberOfPoints="2743" NumberOfCells="5270">
<Points>
<DataArray  type="Float64"  NumberOfComponents="3"  format="ascii">-0.12 0.1 0  -0.12 0 0  -0.01986476715483886 0 0  -0.01986476715483886 0.002321858282504599 0  -0.01879385241571817 0.006840402866513377 0  -0.01670975622825873 0.01099017956141612 0  -0.01372483275737467 0.01454747283146098 0  -0.009999999999999995 0.01732050807568877 0  -0.005736064654221804 0.01915979024630978 0  -0.001162896578209515 0.01996616316542536 0  0.003472963553338608 0.01969615506024416 0  0.007921595320783138 0.01836432213760548 0  0.01194317183405572 0.01604246385510088 0  0.01532088886237956 0.01285575219373078 0  0.01787265280646825 0.008975983604009244 0  0.01946089741159648 0.004612317414848803 0  0.02 0 0  0.12 0 0  0.12 0.1 0  0 0.1 0  0.06 0.1 0  -0.06 0.1 0  0.12 0.05 0  0.06999999999999999 0 0  -0.12 0.05 0  -0.06993238357741943 0 0  0.06954545454545454 0.05045454545454546 0  -0.05256818197129183 0.04876858210896794 0  0.03 0.06852793994995832 0  -0.01060230953534651 0.06012868531377026 0  -0.08590602075287224 0.07008722490344668 0  -0.08700383268980955 0.03297312682365156 0  0.09 0.1 0  0.09454951298701297 0.02545048701298702 0  0.04421726329698947 0.02908215157121827 0  -0.03 0.1 0  -0.09 0.1 0  0.03 0.1 0  0.094941534914361 0.0689649209486166 0  -0.045 0.07602120282224097 0  0.0137000972673793 0.04576151173676769 0  -0.04489857536612915 0 0  -0.02795527007175781 0.03755044438085961 0  -0.06241371758055736 0.02479853554667227 0  0.06931814492325854 0.02522317739079102 0  0.0562106357694593 0.07357769546517523 0  -0.09496619178870971 0 0  0.12 0.025 0  0.095 0 0  -0.12 0.025 0  -0.12 0.07500000000000001 0  0.12 0.07500000000000001 0  0.045 0 0  -0.0228302666921874 0.07883391093803507 0  0.09815763663419913 0.04717696422689629 0  0.04642316516164364 0.05216224004895101 0  0.015 0.08426396997497916 0  0.07685335020605615 0.08199579006851358 0  -0.03212624651891543 0.05871373573766032 0  -0.06454151582324234 0.06677080404579981 0  -0.007428983740834363 0.03973215840314246 0  -0.04143162460864844 0.02103341629232999 0  -0.07788632568368571 0.05127672197436213 0  -0.09902623975019198 0.05337871787903269 0  -0.075 0.1 0  -0.1014173577311382 0.0832008292773658 0  0.105 0.1 0  0.008793975861786027 0.06520032249375621 0  -0.003877486809385651 0.08128666365361911 0  0.04056005001669608 0.08426396997497916 0  -0.07890609788649815 0.0162597993618741 0  -0.1010699031813867 0.01892186545593956 0  0.08267954418645374 0.03858457665398622 0  0.08249999999999999 0.01250797385719048 0  0.1070573481575616 0.01294265184243836 0  -0.1072273189424094 0.0375 0  0.05487128127324764 0.0148172916808382 0  -0.07306292723448589 0.08234923187849305 0  0.02604316659281994 0.02760414390118441 0  0.03422315740010771 0.01291039266157378 0  0.02953764603397802 0.05164069645856708 0  0.05711184749668567 0.0394951990120913 0  0.1048403709991175 0.08290422259947053 0  0.07836733468041428 0.06502779237175893 0  -0.015 0.1 0  0.107641636468974 0.05970823073603768 0  0.12 0.03750000000000001 0  -0.07203199631147464 0.0369378911801824 0  -0.05383214135241159 0.01227496304049853 0  -0.12 0.0625 0  -0.105 0.1 0  0.075 0.1 0  0.015 0.1 0  -0.045 0.1 0  0.045 0.1 0  -0.10518488525811 0.06789183644845204 0  -0.04335959578005873 0.03636269925572742 0  -0.05884641539443965 0.08000585119468683 0  -0.02074261661302542 0.04996461834162433 0  -0.02653136512200803 0.0222624586885067 0  -0.08714978711530966 0.08578346506967012 0  -0.03506452979410112 0.08648708658184591 0  -0.04620947545617006 0.0616799095273325 0  0.0006562636529589983 0.05143519384945657 0  0.1057204605480501 0.03475816363918364 0  0.09074280792825767 0.08565566471894244 0  0.005667439598789157 0.03387418246945268 0  -0.03238167126048401 0 0  0.0383080886578613 0.04129238651963005 0  0.08505369180647195 0.05254495235246789 0  -0.1074830958943549 0 0  -0.12 0.0125 0  0.05414542183412842 0.08735675763730583 0  0.04308500944676981 0.07115822817126308 0  0.0649349230807125 0.06320229510900416 0  -0.05637247339858926 0.03632415216907382 0  -0.01542434356580282 0.02929607297537314 0  0.02778002500834804 0.08142901444438948 0  -0.06542774243586742 0.04799884169932159 0  -0.06661544991358234 0.0127173865239021 0  0.08192808295131557 0.02597463862592918 0  0.07006960615839669 0.03783311541884806 0  0.06988230421815755 0.01261762329223161 0  -0.12 0.08750000000000001 0  -0.08244928768306457 0 0  -0.05741547947177429 0 0  -0.03984291085584598 0.04859364585838993 0  0.08249999999999999 0 0  0.12 0.0625 0  -0.12 0.03750000000000001 0  0.12 0.0125 0  0.0325 0 0  0.0575 0 0  0.1075 0 0  0.12 0.08750000000000001 0  0.02042070411167864 0.06034025931465875 0  0.05702213417260474 0.02706267745085339 0  0.0675 0.09013045458016318 0  0.09478643990600856 0.0122865785926504 0  -0.04904630236735645 0.08801060141112049 0  0.02613192868361687 0.0398635327923046 0  -0.09569137037305205 0.04159910065917647 0  0.05140611894455763 0.0628291923813368 0  0.1085809652542695 0.07158881227331852 0  0.05796589338150855 0.05105903259253412 0  0.03841143349411784 0.06054564265388553 0  -0.02947166435407259 0.01113520957350828 0  -0.1102478054683027 0.05625 0  -0.09068017366517905 0.01182794374687028 0  -0.01434600857542353 0.08772663538203848 0  -0.03362945317777148 0.07517582904977035 0  -0.01235387050651601 0.0723330924144738 0  -0.02307888867457602 0.06674121501662693 0  -0.002185408069912574 0.06756456274836646 0  0.0678638500046832 0.07452078468888843 0  0.08597040057425252 0.07558162872540394 0  0.09674588960513322 0.05809991882890109 0  0.1094709655577269 0.04555436451412986 0  0.09473770132491341 0.03658207429318428 0  -0.06454868296360231 0.08970720561340952 0  0.1088432154030167 0.02400081163981114 0  -0.07748216799376378 0.02726807518039781 0  0.0075 0.09213198498748959 0  0.01849963805527029 0.07258270415679953 0  0.0225 0.09213198498748959 0  -0.07477959581424944 0.07129038985899076 0  -0.05389685222033951 0.06954987308797576 0  -0.05952130701477828 0.05712689877479761 0  -0.09084078800149091 0.02274804774342801 0  -0.09837161430440977 0.03085986409994825 0  -0.05131093786741553 0.0263250162658456 0  0.01635618606258252 0.03530907600454269 0  -0.03460613037873773 0.02922068783924693 0  -0.04043226315035484 0.01006625299372829 0  0.08175024910257063 0.09159737271826002 0  -0.09494035380298299 0.06367583527464522 0  -0.0886934906578859 0.04994210372431981 0  -0.02490130542947547 0.09038352188878838 0  0.04417108737523257 0.01793664269923905 0  -0.003940932065510782 0.02996170313966536 0  -0.01783357510351885 0.03997209276407525 0  -0.009556322084365085 0.04984630266759408 0  -0.09566755421412014 0.074271403467777 0  0.0355203970594753 0.02354533265972011 0  0.006555555071563847 0.07647100871020274 0  -0.07937685857812513 0.06175606142440594 0  -0.082228823034201 0.04201720146426499 0  -0.06983948840172999 0.05776693996935201 0  -0.09555085505908593 0.09149315155487603 0  -0.1098516392886323 0.0771584086134595 0  0.0975 0.1 0  0.01159727503865655 0.05556931308228881 0  -0.1115659278883601 0.01875 0  -0.1012246438415323 0.008426566493923617 0  0.01474516449273796 0.0255393740673827 0  0.08779480154260712 0.06219573447921576 0  -0.1125 0.1 0  -0.109677715301956 0.0898066291811736 0  0.1125 0.1 0  -0.1076436806656361 0.02771938223489072 0  -0.1109003748179492 0.009075404417277109 0  -0.03013785075543634 0.04712089514258909 0  -0.004952464847218618 0.0912677883600678 0  -0.1065795284902037 0.04722264329381553 0  0.04842831953664987 0.07898377417315099 0  0.03252098192319938 0.09028046125939154 0  0.02476218534733019 0.01628634550873906 0  0.04791904264346727 0.04258131505029045 0  0.06144185941573184 0.08140605316446399 0  0.1108170457022867 0.09049022742137205 0  -0.08249999999999999 0.1 0  -0.07849279483093181 0.09068500987040669 0  0.09901040145429967 0.0905247702494426 0  -0.07619083563024201 0.007152163970009891 0  -0.03784209605914159 0.06649148111429766 0  0.03557615988040569 0.07650767001919569 0  0.03302905362294855 0.03368357951329398 0  0.001528049998133968 0.0421884697145129 0  -0.06677219502603519 0.0755735126223121 0  -0.07078299185927128 0.02093806600642789 0  0.07624698700554428 0.01898789084580359 0  0.0425071772133816 0.008872273040118464 0  0.06222675218673776 0.01983691994242202 0  0.05125 0.006533019494560529 0  -0.08112674022156063 0.07793832028046994 0  0.0894563302875119 0.04461415956113914 0  0.07600555403016987 0.04440122631805228 0  0.1011730931788228 0.01956623203424818 0  0.08875791189114002 0.01876216216110217 0  0.07625 0.006253986928595243 0  0.10125 0.00625378014893175 0  0.06159289116562519 0.008367939956509781 0  0.1133219866490167 0.006678013350983326 0  0.12 0.03125 0  0.08875 0 0  0.09447377394606553 0.07772073910541109 0  0.1125347363168419 0.07917181005820358 0  -0.0360489221788708 0.04088174671649498 0  0.07238835401788725 0.0586903785336876 0  0.07770534388963661 0.0735202678075017 0  -0.02352204721963873 0.05812853133009549 0  0.02771469012026706 0.007208889738796465 0  0.06289457418076626 0.0332368862735679 0  0.02997504279709136 0.060078672135782 0  0.0379740367310045 0.0521076669766706 0  0.02209772318747019 0.04741115745969623 0  -0.0375 0.1 0  -0.04152152214341864 0.09214855581173653 0  0.07670804270236463 0.03261307516989712 0  0.08846339346732941 0.03112076208171376 0  0.06426407185079112 0.0439136177978413 0  0.05037140838704721 0.03465168226171754 0  -0.1136136594712047 0.0428084044537857 0  -0.113526383098718 0.06949936267301912 0  -0.002312773411525084 0.05922711625796673 0  0.04612867834591947 0.09118715625326625 0  0.0525 0.1 0  -0.0525 0.1 0  -0.05642436013397981 0.09226832717651308 0  0.12 0.01875 0  0.0375 0.1 0  -0.1021974954105155 0.06059626541185022 0  0.04989633308677061 0.02348577305550612 0  -0.12 0.03125 0  0.003928287502683688 0.08448841352572942 0  0.1030125400079595 0.05335714910633224 0  0.1025673057510353 0.0660868
[...]
<PointData  Scalars="f_29"> 
<DataArray  type="Float64"  Name="f_29"  format="ascii">1.0016899213467727e+01  1.0144911372840646e+01  5.0000000000000000e+01  4.9999999999999993e+01  5.0000000000000000e+01  5.0000000000000000e+01  5.0000000000000000e+01  5.0000000000000000e+01  5.0000000000000000e+01  5.0000000000000000e+01  5.0000000000000000e+01  5.0000000000000000e+01  5.0000000000000000e+01  5.0000000000000000e+01  5.0000000000000000e+01  5.0000000000000000e+01  5.0000000000000000e+01  1.0145597789317284e+01  1.0016873314781504e+01  1.0636709021090908e+01  1.0186925015414287e+01  1.0186651884253685e+01  1.0067812250261509e+01  1.2495387145202947e+01  1.0068013731541656e+01  1.2504337277574514e+01  1.0866368388016999e+01  1.2239010998272319e+01  1.1846946636868640e+01  1.4400988484787776e+01  1.0150073299877741e+01  1.0528666414866155e+01  1.0048356653401509e+01  1.0380409037135188e+01  1.7139071595645881e+01  1.0462026814243400e+01  1.0048301258442816e+01  1.0462338015491824e+01  1.0094386568953830e+01  1.0757708034463738e+01  1.9600368301543302e+01  2.1260835742714661e+01  2.0119978986868546e+01  1.2992090302676139e+01  1.1951850767660613e+01  1.0559221981808037e+01  1.0468214685051086e+01  1.0119446385689255e+01  1.0468098073850985e+01  1.0119247708828938e+01  1.0029563001585153e+01  1.0029526642627918e+01  2.1201471165581470e+01  1.1175710701227011e+01  1.0173681704527473e+01  1.2526939165547393e+01  1.0972969076938684e+01  1.0143300413581587e+01  1.3040044067730920e+01  1.0538704874994581e+01  2.4368792532979388e+01  2.0312746877365242e+01  1.0519203002064977e+01  1.0134932926627750e+01  1.0098968161705775e+01  1.0038790816101349e+01  1.0023969857874777e+01  1.3288081669801519e+01  1.1255930637385596e+01  1.0564700998379049e+01  1.1243542160955185e+01  1.0274673781722308e+01  1.0596840403799783e+01  1.1026779697639128e+01  1.0206169082093929e+01  1.0135683268811659e+01  1.5655687525460582e+01  1.0170286815083577e+01  2.6375966281526537e+01  2.7600878849502266e+01  1.4822382679268342e+01  1.2588556851874147e+01  1.0033450286473199e+01  1.0284399186629594e+01  1.0584283348908059e+01  1.0068502265793018e+01  1.0093979983530875e+01  1.1209937628527637e+01  1.6238910692986533e+01  1.0045602430684578e+01  1.0023931227617172e+01  1.0098920096087451e+01  1.0586564396121959e+01  1.0313172019235079e+01  1.0313495778872083e+01  1.0057149936008626e+01  1.5739731163567566e+01  1.0360069829196688e+01  1.6663755807581094e+01  2.9417644128081722e+01  1.0073737912174817e+01  1.0592356817422960e+01  1.1577039050721574e+01  1.7778471784246577e+01  1.0156790369739458e+01  1.0061318879083093e+01  2.9735762434525967e+01  3.1790082645770585e+01  1.5839407463117555e+01  1.0322439463441848e+01  1.0213296163780960e+01  1.0137803028893558e+01  1.0309857908519675e+01  1.1061731292923714e+01  1.0627912119214971e+01  1.3011688565276284e+01  3.0997346971404578e+01  1.0917010603905416e+01  1.1194488619371802e+01  1.2868019708728340e+01  1.0861824940642569e+01  1.1324085605678210e+01  1.2338443773946070e+01  1.0020041256210225e+01  1.1096605806336340e+01  1.5467583560513129e+01  1.3929505205578860e+01  1.1095686789040714e+01  1.0045582905530770e+01  1.0094175620443258e+01  1.0138539595130101e+01  3.1690637259021798e+01  1.5443684134679087e+01  1.0212626976764300e+01  1.0020027326186737e+01  1.3727271642616749e+01  1.3856608058739765e+01  1.0163070583283147e+01  1.0447683489875203e+01  1.0362694141016698e+01  1.9667570026981029e+01  1.0239741808314845e+01  1.1200426429343318e+01  1.0042638739740086e+01  1.1555832367475825e+01  1.2245050386391121e+01  3.2771846843914290e+01  1.0068856569933777e+01  1.0594011624133927e+01  1.0820674575977584e+01  1.1136449142727150e+01  1.2041757072939019e+01  1.2418924403145432e+01  1.2933346232947589e+01  1.0314418111358266e+01  1.0117504328347646e+01  1.0130069172607090e+01  1.0098815175434245e+01  1.0291887698991511e+01  1.0187606336826297e+01  1.0163840106172740e+01  1.1117392721158366e+01  1.0722336842518027e+01  1.1848022942085997e+01  1.0612474019528660e+01  1.0259141390189004e+01  1.0760685720266341e+01  1.1094877738048293e+01  1.0507949676507215e+01  1.0265139416346036e+01  1.5373072757652105e+01  2.5560852107941727e+01  2.1022397197899586e+01  2.3417616444906901e+01  1.0080791441299578e+01  1.0116743580561309e+01  1.0284873312820377e+01  1.0625786110596895e+01  1.9647294712833801e+01  3.4310724547195420e+01  2.1988398620422210e+01  1.8105768949099431e+01  1.0073245969199013e+01  2.2778257433256876e+01  1.1655259265191857e+01  1.0311247003101961e+01  1.0553445786788249e+01  1.0624567560662465e+01  1.0040782422590389e+01  1.0033270610838027e+01  1.0033555126973788e+01  1.5694450641525481e+01  1.0155576038233772e+01  1.0301869034844104e+01  3.5200196930705346e+01  1.0188007247148088e+01  1.0018591662295563e+01  1.0022759640979979e+01  1.0018603350274370e+01  1.0163257399080077e+01  1.0175086476219525e+01  1.5974813440851184e+01  1.0754551338016263e+01  1.0107888048423042e+01  1.0572982668871997e+01  1.0536334465112850e+01  3.5009268448872263e+01  1.3628540005799209e+01  1.0302004377408172e+01  1.0021683246899995e+01  1.0069726254097308e+01  1.0097012081577406e+01  1.0035218715715324e+01  1.1628909517922127e+01  1.1646141051336008e+01  1.0994393958734632e+01  1.9923442654958151e+01  2.3031496570230953e+01  1.0313846002400918e+01  1.1947907797976116e+01  1.1420733165631079e+01  2.2209540508257223e+01  1.3358352559767273e+01  1.7682953747754034e+01  1.0137868032438723e+01  1.0323409057638642e+01  1.0746729648584671e+01  1.0271339178235950e+01  1.0624624313642091e+01  1.1632424990531218e+01  1.0304831865258873e+01  1.4094342466756203e+01  1.0161183940257988e+01  1.0106817278891983e+01  1.0716224947573503e+01  1.0067820079206413e+01  1.0028444831800201e+01  1.6502256089229427e+01  1.0524091054907789e+01  1.0200513031841353e+01  1.3966989512970251e+01  3.6297149845346901e+01  1.2317127460398650e+01  1.3006497195903714e+01  1.3544349907094121e+01  1.7400306396963135e+01  1.0386963179130762e+01  1.0396396874222312e+01  1.1031105936518667e+01  1.0502983366118897e+01  1.1494028497839293e+01  1.4352946688999053e+01  1.0091387249875131e+01  1.0039111365665539e+01  1.4899496308280101e+01  1.0354805034863974e+01  1.0245783101570368e+01  1.0245138954245324e+01  1.0239992162138364e+01  1.0129886271653536e+01  1.0388131947660797e+01  1.0087290525016078e+01  1.6261124840802786e+01  1.0107023988496820e+01  1.1046569478949808e+01  1.0107473391600301e+01  1.0069656992801706e+01  1.0055866434318586e+01  1.3724167326729344e+01  1.4433980975250448e+01  1.0193823541979583e+01  1.1755251854952352e+01  1.0522704634314985e+01  2.6083318336901524e+01  1.1266510912996207e+01  1.0810764634137653e+01  1.0817712239440153e+01  1.1769349434807770e+01  1.7905059458896947e+01  1.3714488141124024e+01  1.0203610368860902e+01  1.0055831136220270e+01  2.5938388185168122e+01  1.0997371077206171e+01  1.9018617010849098e+01  1.4012226250075432e+01  1.9305855569708410e+01  1.0180174802647185e+01  1.0070159311418671e+01  1.0530393134589543e+01  1.0687839880552554e+01  1.0530726508513528e+01  1.0622000356196937e+01  1.0137710828635077e+01  1.0137826043894410e+01  1.0069536921785073e+01  1.0033605109185235e+01  1.0622889471618130e+01  1.0089879980276404e+01  1.0064440491804344e+01  3.6837052005350522e+01  3.7522793548309743e+01  1.2418678659874772e+01  1.2122924315255206e+01  1.0112946984486186e+01  1.0126237396578198e+01  1.2138877567685595e+01  1.0036712870834718e+01  1.0046142810889734e+01  1.0017704845233533e+01  1.2381330553793505e+01  1.2791252551116589e+01  1.0247642600367904e+01  1.0151849869813139e+01  1.0055816428114428e+01  1.0024093432471860e+01  1.0047182727172707e+01  1.0308187431285679e+01  1.0498297167635602e+01  1.0799492313658652e+01  1.0732209270935106e+01  1.0716245520269689e+01  1.0557149958754961e+01  1.0398253126311463e+01  1.1142027032386828e+01  1.5417125125952357e+01  1.0092107761464138e+01  1.0047028899752565e+01  1.5778896989939204e+01  3.7999842343246087e+01  2.3583289765659469e+01  1.0120710842476873e+01  1.0233379203005388e+01  1.5708549100757216e+01  1.8613026486916240e+01  1.0030049254356300e+01  1.8364657023833466e+01  1.0117531987125538e+01  1.0484852429323125e+01  1.0150979423040207e+01  1.0311114981637722e+01  1.0218456690122936e+01  1.0370990876440029e+01  1.3542899223600362e+01  1.0722149564973719e+01  1.1500766870925002e+01  3.8428583645591999e+01  1.0932435414257604e+01  1.1008088518989043e+01  1.0708747387451265e+01  1.0207943699619230e+01  1.0219057450180145e+01  1.1878223965593172e+01  1.0610643180606264e+01  1.5508203066078922e+01  1.0076504602055435e+01  1.0050450618369618e+01  1.0438914560470133e+01  1.0837222951104229e+01  3.8973004230531473e+01  1.0762195883871868e+01  1.0045161751073795e+01  1.6406623959252506e+01  1.3865421679644919e+01  1.0512573915440228e+01  1.0172503740172020e+01  1.1588991581946710e+01  1.1616514685319085e+01  2.0294031663204969e+01  1.0390495123785568e+01  1.0469968335650856e+01  1.8393662236826533e+01  2.0825158605506964e+01  2.8236576529641518e+01  2.5692890412275514e+01  2.7488793430215328e+01  1.2520466581826822e+01  1.0874110727920145e+01  1.1414279660702089e+01  1.0661452454130590e+01  1.5743791244260613e+01  1.0093713142163878e+01  1.0409476283509861e+01  1.0017685088585434e+01  1.1474532779357331e+01  2.6569600468524385e+01  1.2382584613535521e+01  1.2523014836007915e+01  1.1446258470078604e+01  1.1157061251317716e+01  1.0727479681474559e+01  1.0758104264280250e+01  1.0776999171504393e+01  3.9714762667007811e+01  1.0116077398823743e+01  1.3939812145860547e+01  1.0320937282759431e+01  2.7970800651475461e+01  2.8940272607433656e+01  2.0766893163073640e+01  1.0762188989191637e+01  1.1529908223810175e+01  1.0161174290913253e+01  1.0143462580364137e+01  1.5006637141382850e+01  1.3632304130275360e+01  3.0921666778772178e+01  1.5419588471136946e+01  1.1882575950021184e+01  1.0253432306303159e+01  1.0493190734047136e+01  1.0502727064405784e+01  1.0318387196649105e+01  1.0296355667625656e+01  1.0133046663059112e+01  1.1562846496088001e+01  1.1288785672121406e+01  1.6527554491778531e+01  1.1557786291540971e+01  1.2330251591341929e+01  1.2459780714477469e+01  1.4043140004702543e+01  1.2657286693572646e+01  1.3868602863989544e+01  1.4286071716478084e+01  1.0571240658130323e+01  1.0379421246058374e+01  1.1473226720224567e+01  1.2190198609802666e+01  2.5792821510394450e+01  1.0309569320667327e+01  1.1667379795782129e+01  1.7910104108356425e+01  1.0945952378628064e+01  1.0036853466095488e+01  3.9546381252944194e+01  1.0143949704792655e+01  1.0129490754568801e+01  1.0023923332633759e+01  1.0161989374910547e+01  1.3709280153905270e+01  1.1662149379826142e+01  1.7871565105747234e+01  1.0080565751123588e+01  1.0056186824027556e+01  1.0309845888386683e+01  1.0024005669008156e+01  1.0080641811847730e+01  1.0799819865907518e+01  1.0789698097640935e+01  1.0408776175158318e+01  1.3278100359252507e+01  1.4841741025612766e+01  1.2697389371733081e+01  1.0421835711995241e+01  1.1077230677515951e+01  1.0122435021206041e+01  1.2727998401431584e+01  2.8408030864151861e+01  1.0575820467727571e+01  1.1712434597881057e+01  1.1477304011936184e+01  1.3008901746397454e+01  1.0961874836150255e+01  1.0857855746210854e+01  1.0296882166507169e+01  1.0476208787563690e+01  1.0029821296491482e+01  2.2426826791125350e+01  1.0158642797578690e+01  1.0199287463802287e+01  1.0240292076865787e+01  1.3814591130374076e+01  1.0405925932593457e+01  1.2075595451978993e+01  1.0055682555259663e+01  1.9473256238438402e+01  1.2455019524318709e+01  1.0211985456180207e+01  1.1119384758675931e+01  1.7590233586704759e+01  1.1098170744900830e+01  1.0037198538962659e+01  1.0034909622351760e+01  1.0191070208081609e+01  1.1173974941234412e+01  1.6709996591180833e+01  1.0724125316364974e+01  1.0911053087677125e+01  1.0027822328724596e+01  1.0060131128514616e+01  1.1048757142881039e+01  1.9078813599395385e+01  1.0179474197981209e+01  1.0146519777467940e+01  1.0191142939645085e+01  1.0212155644049082e+01  1.0184635076241769e+01  1.0224239917805892e+01  4.0008807807501384e+01  3.9903522715823684e+01  1.1197737683870182e+01  1.2107288231925192e+01  1.1221514883764177e+01  1.1935354611236248e+01  1.0122844040769769e+01  1.0097257714511679e+01  1.0412609195888280e+01  1.0386074830497533e+01  1.0262495592912991e+01  1.4052300109521145e+01  1.0952383416481213e+01  1.0065401195380142e+01  1.0025491564950398e+01  1.0077139668164326e+01  1.0123368365633207e+01  2.2995286479228803e+01  1.1697010961273483e+01  1.1110359695066537e+01  1.0877856394635247e+01  1.2813822115218908e+01  3.1888082956736032e+01  1.3441817110928103e+01  1.0167526436213265e+01  1.0159087993499435e+01  1.7390104664886611e+01  1.0021353907377350e+01  1.0018519673914954e+01  1.0028874776106095e+01  1.0193231343436841e+01  1.0227141682364596e+01  1.0183768135401014e+01  1.0374380586299372e+01  1.4912309204408054e+01  1.0119768269983217e+01  1.0021264918235961e+01  1.0124934163326246e+01  1.0085664491094915e+01  1.0098407666131672e+01  2.3236899490364660e+01  1.8366103598707856e+01  1.0204358211955343e+01  1.0247463072077782e+01  1.0348870516367395e+01  1.1188887156513617e+01  1.0133503438099090e+01  1.0489061462274957e+01  1.0095157976873194e+01  2.2409623652124598e+01  1.0064949936369610e+01  2.2472322281332740e+01  1.0151091022914526e+01  1.0703284163870823e+01  3.1236472210691549e+01  1.4247085389569495e+01  1.0257898064908424e+01  1.1352010103320234e+01  1.0101215890884868e+01  1.0088873620056082e+01  1.7804717004052264e+01  2.7047196664476971e+01  2.1922423140915072e+01  2.3152440503263794e+01  1.0028873107352217e+01  1.0150959381134763e+01  1.2930162294630893e+01  1.0353205543823186e+01  1.0803583893894274e+01  1.0256560858403645e+01  1.0027756333166517e+01  1.0432486171405253e+01  1.7187358140340390e+01  1.0432189498763686e+01  1.0516884364330378e+01  1.7977597930064459e+01  1.0823397778095014e+01  1.0288144225610901e+01  1.0953837938413921e+01  1.0723873989985504e+01  1.0836728525155415e+01  1.0667650284233547e+01  1.0584733969345171e+01  1.0517159915762873e+01  1.0633632175016912e+01  1.7912200325355798e+01  1.4822625065311483e+01  2.2721538376299712e+01  1.0067963936672417e+01  1.1778937118012335e+01  1.1406322719784807e+01  1.0124494594485521e+01  1.2057370148077265e+01  3.1842634525935967e+01  1.0165524537719850e+01  1.0362494098157594e+01  2.4712076628251875e+01  1.4809453959033180e+01  1.0102686500847685e+01  1.0092550248089204e+01  1.0053930367280245e+01  1.0214088500354219e+01  1.0278105702773408e+01  1.0407295454324514e+01  1.0020468057748712e+01  1.0135307819260017e+01  1.2285396277259983e+01  1.0683865809834698e+01  1.5592698990279681e+01  1.0799141290881369e+01  1.0148651101032289e+01  1.0400002883877558e+01  1.0252986444884806e+01  1.0944669879870462e+01  1.0045790234391243e+01  1.1722719526176833e+01  1.0079644037212674e+01  2.2524727917443727e+01  1.2868813244751626e+01  1.9016658402233503e+01  1.0136034313332882e+01  1.0043898522731531e+01  2.8813252559325331e+01  1.0053514683563510e+01  1.6007334763003044e+01  3.0599167621955356e+01  4.1254304701624456e+01  2.2995863737084420e+01  1.0218027264938028e+01  1.0557523108266517e+01  1.0090947465714951e+01  1.0322117380760488e+01  1.1320956601603715e+01  1.0054748278025810e+01  1.0039569129686448e+01  1.0040266496986638e+01  1.0045649027819396e+01  1.1537220339324199e+01  1.1092649298240998e+01  1.0023381461048537e+01  1.0078224483479174e+01  1.2654925221328535e+01  3.3244765243450104e+01  2.3609639339734336e+01  2.9855920130158051e+01  1.0111586473866177e+01  1.0768550389539921e+01  4.1737813682582697e+01  4.0928851258501318e+01  1.7424806203638493e+01  1.0633174422066647e+01  1.4474285163042303e+01  1.7476712119657879e+01  1.0107306915107799e+01  1.0804599584093175e+01  1.0128407163328367e+01  1.0085972839815838e+01  4.1388035233202160e+01  1.0273149869333576e+01  1.0100368133132095e+01  1.0139503826999690e+01  1.0103269169351424e+01  1.3969945326981211e+01  1.0466799318877102e+01  1.0229235643394244e+01  2.6972519662466013e+01  1.7861415067460815e+01  1.5274394994600097e+01  1.0445777777488802e+01  1.3172295353840694e+01  1.0099024020783446e+01  1.3173271498351204e+01  1.1550170114512380e+01  1.0017321244588544e+01  1.0018456001946308e+01  1.1636093864810823e+01  1.0614449760152299e+01  1.0056302432994377e+01  1.0279447886003439e+01  1.2351950359645540e+01  1.0181140582330396e+01  1.0224189219957848e+01  1.4654195608443317e+01  1.4630683111027995e+01  1.1236069590655223e+01  1.0143065477523015e+01  1.0020509712855766e+01  1.0153367284804032e+01  1.1570677466334141e+01  1.0036617060452315e+01  2.4069800805434003e+01  4.1051955775653873e+01  1.0452439615105158e+01  1.0045955066115628e+01  3.4253461520770884e+01  1.0555356851454635e+01  1.9961187896422764e+01  4.1977848812179325e+01  1.4060964165105529e+01  2.6158875084907375e+01  1.0063789493571143e+01  1.0203731226842004e+01  1.2929094966935944e+01  1.0051524919227470e+01  1.1421837167531127e+01  1.3045406835951837e+01  1.0778005765510050e+01  1.0556187546597807e+01  1.0554598867845836e+01  1.0270269622180662e+01  1.0414437680438642e+01  1.5245822534763047e+01  1.2037854940982312e+01  1.0254591725406071e+01  1.6615942821386316e+01  3.2438683047272974e+01  1.1640328024954758e+01  4.2997320136684792e+01  1.0938909205592463e+01  1.3514227980731173e+01  1.1640296024889629e+01  1.3032379623254975e+01  1.3419586942609289e+01  1.3049026103152810e+01  1.6623962191207060e+01  1.0623732718919760e+01  2.6234814151377719e+01  2.3323431570869541e+01  1.0741129628417820e+01  1.0042029584741186e+01  1.0077739993079840e+01  1.0651677853589669e+01  1.0433689686017587e+01  1.0958399224712139e+01  1.0745365564694040e+01  1.1021880919998328e+01  1.1563444997728379e+01  1.2247723643547975e+01  1.2277613649583282e+01  2.0322908221337617e+01  1.0126407590125112e+01  1.0165769473221729e+01  1.5610634577106747e+01  1.0691965914097491e+01  1.4544549358244684e+01  1.0696041266227878e+01  1.0077417575118563e+01  1.3307212158557258e+01  1.2062388844845676e+01  1.1308457907305046e+01  1.0425369742943444e+01  2.0843274582613134e+01  1.0537655356590953e+01  1.4657073579366665e+01  2.0680741216119785e+01  1.0659181604013028e+01  1.0470488515424586e+01  1.0358080454817800e+01  1.0412497131760052e+01  2.1175483677639061e+01  1.0233323845669597e+01  1.0340784982093941e+01  1.0443187280824729e+01  1.7546720348524644e+01  3.3994057539932307e+01  1.0116448696091814e+01  2.5690049376070803e+01  1.0557700853122013e+01  1.0595133053956809e+01  1.0394173175100033e+01  1.1832319261163008e+01  1.1141846434172876e+01  1.0523900773868046e+01  1.0997286811837403e+01  1.6802729077263027e+01  1.0128196651716921e+01  1.0720676157610699e+01  1.0418342050618449e+01  1.0780940568873188e+01  1.0234443513822791e+01  1.4470558825246430e+01  1.4549988560959390e+01  1.0734022160498066e+01  1.3691987377899807e+01  1.2604215908568602e+01  1.0634974546901788e+01  1.0028020369930235e+01  1.0313351856295014e+01  1.0443486347912790e+01  1.3039520670712891e+01  1.0213109584321693e+01  1.0182200166446348e+01  1.0840092007883030e+01  1.0246979743134448e+01  1.0721473024918225e+01  1.0626801648794078e+01  1.7004783375217936e+01  1.1217034266289687e+01  1.0517235368536282e+01  1.0181339645899412e+01  1.2036662483013949e+01  1.1971515943697099e+01  1.1342690062629103e+01  1.1300860811041462e+01  1.0382435613843240e+01  1.0374454582336382e+01  1.0632227911728577e+01  1.0149930709311498e+01  1.3192274578441552e+01  1.1961863737692969e+01  1.1597113856324276e+01  1.0350549196308313e+01  1.0033446065805785e+01  1.9889802468542907e+01  1.0071050710406084e+01  2.6442595576898174e+01  1.0076136749980202e+01  1.0066331409666862e+01  1.1649203964809489e+01  1.0215181223593662e+01  1.8129233985940438e+01  1.0035012434891618e+01  1.5197097161618970e+01  1.0035600241773912e+01  1.0716332273386014e+01  1.5658493419887073e+01  1.0485621508865998e+01  1.0143242071186643e+01  1.1124438457875479e+01  1.0214425154412224e+01  1.0159588275535038e