<?xml version="1.0"?>
<VTKFile type="UnstructuredGrid"  version="0.1"  >
<UnstructuredGrid>
<Piece  NumberOfPoints="2743" NumberOfCells="5270">
<Points>
<DataArray  type="Float64"  NumberOfComponents="3"  format="ascii">-0.12 0.1 0  -0.12 0 0  -0.01986476715483886 0 0  -0.01986476715483886 0.002321858282504599 0  -0.01879385241571817 0.006840402866513377 0  -0.01670975622825873 0.01099017956141612 0  -0.01372483275737467 0.01454747283146098 0  -0.009999999999999995 0.01732050807568877 0  -0.005736064654221804 0.01915979024630978 0  -0.001162896578209515 0.01996616316542536 0  0.003472963553338608 0.01969615506024416 0  0.007921595320783138 0.01836432213760548 0  0.01194317183405572 0.01604246385510088 0  0.01532088886237956 0.01285575219373078 0  0.01787265280646825 0.008975983604009244 0  0.01946089741159648 0.004612317414848803 0  0.02 0 0  0.12 0 0  0.12 0.1 0  0 0.1 0  0.06 0.1 0  -0.06 0.1 0  0.12 0.05 0  0.06999999999999999 0 0  -0.12 0.05 0  -0.06993238357741943 0 0  0.06954545454545454 0.05045454545454546 0  -0.05256818197129183 0.04876858210896794 0  0.03 0.06852793994995832 0  -0.01060230953534651 0.06012868531377026 0  -0.08590602075287224 0.07008722490344668 0  -0.08700383268980955 0.03297312682365156 0  0.09 0.1 0  0.09454951298701297 0.02545048701298702 0  0.04421726329698947 0.02908215157121827 0  -0.03 0.1 0  -0.09 0.1 0  0.03 0.1 0  0.094941534914361 0.0689649209486166 0  -0.045 0.07602120282224097 0  0.0137000972673793 0.04576151173676769 0  -0.04489857536612915 0 0  -0.02795527007175781 0.03755044438085961 0  -0.06241371758055736 0.02479853554667227 0  0.06931814492325854 0.02522317739079102 0  0.0562106357694593 0.07357769546517523 0  -0.09496619178870971 0 0  0.12 0.025 0  0.095 0 0  -0.12 0.025 0  -0.12 0.07500000000000001 0  0.12 0.07500000000000001 0  0.045 0 0  -0.0228302666921874 0.07883391093803507 0  0.09815763663419913 0.04717696422689629 0  0.04642316516164364 0.05216224004895101 0  0.015 0.08426396997497916 0  0.07685335020605615 0.08199579006851358 0  -0.03212624651891543 0.05871373573766032 0  -0.06454151582324234 0.06677080404579981 0  -0.007428983740834363 0.03973215840314246 0  -0.04143162460864844 0.02103341629232999 0  -0.07788632568368571 0.05127672197436213 0  -0.09902623975019198 0.05337871787903269 0  -0.075 0.1 0  -0.1014173577311382 0.0832008292773658 0  0.105 0.1 0  0.008793975861786027 0.06520032249375621 0  -0.003877486809385651 0.08128666365361911 0  0.04056005001669608 0.08426396997497916 0  -0.07890609788649815 0.0162597993618741 0  -0.1010699031813867 0.01892186545593956 0  0.08267954418645374 0.03858457665398622 0  0.08249999999999999 0.01250797385719048 0  0.1070573481575616 0.01294265184243836 0  -0.1072273189424094 0.0375 0  0.05487128127324764 0.0148172916808382 0  -0.07306292723448589 0.08234923187849305 0  0.02604316659281994 0.02760414390118441 0  0.03422315740010771 0.01291039266157378 0  0.02953764603397802 0.05164069645856708 0  0.05711184749668567 0.0394951990120913 0  0.1048403709991175 0.08290422259947053 0  0.07836733468041428 0.06502779237175893 0  -0.015 0.1 0  0.107641636468974 0.05970823073603768 0  0.12 0.03750000000000001 0  -0.07203199631147464 0.0369378911801824 0  -0.05383214135241159 0.01227496304049853 0  -0.12 0.0625 0  -0.105 0.1 0  0.075 0.1 0  0.015 0.1 0  -0.045 0.1 0  0.045 0.1 0  -0.10518488525811 0.06789183644845204 0  -0.04335959578005873 0.03636269925572742 0  -0.05884641539443965 0.08000585119468683 0  -0.02074261661302542 0.04996461834162433 0  -0.02653136512200803 0.0222624586885067 0  -0.08714978711530966 0.08578346506967012 0  -0.03506452979410112 0.08648708658184591 0  -0.04620947545617006 0.0616799095273325 0  0.0006562636529589983 0.05143519384945657 0  0.1057204605480501 0.03475816363918364 0  0.09074280792825767 0.08565566471894244 0  0.005667439598789157 0.03387418246945268 0  -0.03238167126048401 0 0  0.0383080886578613 0.04129238651963005 0  0.08505369180647195 0.05254495235246789 0  -0.1074830958943549 0 0  -0.12 0.0125 0  0.05414542183412842 0.08735675763730583 0  0.04308500944676981 0.07115822817126308 0  0.0649349230807125 0.06320229510900416 0  -0.05637247339858926 0.03632415216907382 0  -0.01542434356580282 0.02929607297537314 0  0.02778002500834804 0.08142901444438948 0  -0.06542774243586742 0.04799884169932159 0  -0.06661544991358234 0.0127173865239021 0  0.08192808295131557 0.02597463862592918 0  0.07006960615839669 0.03783311541884806 0  0.06988230421815755 0.01261762329223161 0  -0.12 0.08750000000000001 0  -0.08244928768306457 0 0  -0.05741547947177429 0 0  -0.03984291085584598 0.04859364585838993 0  0.08249999999999999 0 0  0.12 0.0625 0  -0.12 0.03750000000000001 0  0.12 0.0125 0  0.0325 0 0  0.0575 0 0  0.1075 0 0  0.12 0.08750000000000001 0  0.02042070411167864 0.06034025931465875 0  0.05702213417260474 0.02706267745085339 0  0.0675 0.09013045458016318 0  0.09478643990600856 0.0122865785926504 0  -0.04904630236735645 0.08801060141112049 0  0.02613192868361687 0.0398635327923046 0  -0.09569137037305205 0.04159910065917647 0  0.05140611894455763 0.0628291923813368 0  0.1085809652542695 0.07158881227331852 0  0.05796589338150855 0.05105903259253412 0  0.03841143349411784 0.06054564265388553 0  -0.02947166435407259 0.01113520957350828 0  -0.1102478054683027 0.05625 0  -0.09068017366517905 0.01182794374687028 0  -0.01434600857542353 0.08772663538203848 0  -0.03362945317777148 0.07517582904977035 0  -0.01235387050651601 0.0723330924144738 0  -0.02307888867457602 0.06674121501662693 0  -0.002185408069912574 0.06756456274836646 0  0.0678638500046832 0.07452078468888843 0  0.08597040057425252 0.07558162872540394 0  0.09674588960513322 0.05809991882890109 0  0.1094709655577269 0.04555436451412986 0  0.09473770132491341 0.03658207429318428 0  -0.06454868296360231 0.08970720561340952 0  0.1088432154030167 0.02400081163981114 0  -0.07748216799376378 0.02726807518039781 0  0.0075 0.09213198498748959 0  0.01849963805527029 0.07258270415679953 0  0.0225 0.09213198498748959 0  -0.07477959581424944 0.07129038985899076 0  -0.05389685222033951 0.06954987308797576 0  -0.05952130701477828 0.05712689877479761 0  -0.09084078800149091 0.02274804774342801 0  -0.09837161430440977 0.03085986409994825 0  -0.05131093786741553 0.0263250162658456 0  0.01635618606258252 0.03530907600454269 0  -0.03460613037873773 0.02922068783924693 0  -0.04043226315035484 0.01006625299372829 0  0.08175024910257063 0.09159737271826002 0  -0.09494035380298299 0.06367583527464522 0  -0.0886934906578859 0.04994210372431981 0  -0.02490130542947547 0.09038352188878838 0  0.04417108737523257 0.01793664269923905 0  -0.003940932065510782 0.02996170313966536 0  -0.01783357510351885 0.03997209276407525 0  -0.009556322084365085 0.04984630266759408 0  -0.09566755421412014 0.074271403467777 0  0.0355203970594753 0.02354533265972011 0  0.006555555071563847 0.07647100871020274 0  -0.07937685857812513 0.06175606142440594 0  -0.082228823034201 0.04201720146426499 0  -0.06983948840172999 0.05776693996935201 0  -0.09555085505908593 0.09149315155487603 0  -0.1098516392886323 0.0771584086134595 0  0.0975 0.1 0  0.01159727503865655 0.05556931308228881 0  -0.1115659278883601 0.01875 0  -0.1012246438415323 0.008426566493923617 0  0.01474516449273796 0.0255393740673827 0  0.08779480154260712 0.06219573447921576 0  -0.1125 0.1 0  -0.109677715301956 0.0898066291811736 0  0.1125 0.1 0  -0.1076436806656361 0.02771938223489072 0  -0.1109003748179492 0.009075404417277109 0  -0.03013785075543634 0.04712089514258909 0  -0.004952464847218618 0.0912677883600678 0  -0.1065795284902037 0.04722264329381553 0  0.04842831953664987 0.07898377417315099 0  0.03252098192319938 0.09028046125939154 0  0.02476218534733019 0.01628634550873906 0  0.04791904264346727 0.04258131505029045 0  0.06144185941573184 0.08140605316446399 0  0.1108170457022867 0.09049022742137205 0  -0.08249999999999999 0.1 0  -0.07849279483093181 0.09068500987040669 0  0.09901040145429967 0.0905247702494426 0  -0.07619083563024201 0.007152163970009891 0  -0.03784209605914159 0.06649148111429766 0  0.03557615988040569 0.07650767001919569 0  0.03302905362294855 0.03368357951329398 0  0.001528049998133968 0.0421884697145129 0  -0.06677219502603519 0.0755735126223121 0  -0.07078299185927128 0.02093806600642789 0  0.07624698700554428 0.01898789084580359 0  0.0425071772133816 0.008872273040118464 0  0.06222675218673776 0.01983691994242202 0  0.05125 0.006533019494560529 0  -0.08112674022156063 0.07793832028046994 0  0.0894563302875119 0.04461415956113914 0  0.07600555403016987 0.04440122631805228 0  0.1011730931788228 0.01956623203424818 0  0.08875791189114002 0.01876216216110217 0  0.07625 0.006253986928595243 0  0.10125 0.00625378014893175 0  0.06159289116562519 0.008367939956509781 0  0.1133219866490167 0.006678013350983326 0  0.12 0.03125 0  0.08875 0 0  0.09447377394606553 0.07772073910541109 0  0.1125347363168419 0.07917181005820358 0  -0.0360489221788708 0.04088174671649498 0  0.07238835401788725 0.0586903785336876 0  0.07770534388963661 0.0735202678075017 0  -0.02352204721963873 0.05812853133009549 0  0.02771469012026706 0.007208889738796465 0  0.06289457418076626 0.0332368862735679 0  0.02997504279709136 0.060078672135782 0  0.0379740367310045 0.0521076669766706 0  0.02209772318747019 0.04741115745969623 0  -0.0375 0.1 0  -0.04152152214341864 0.09214855581173653 0  0.07670804270236463 0.03261307516989712 0  0.08846339346732941 0.03112076208171376 0  0.06426407185079112 0.0439136177978413 0  0.05037140838704721 0.03465168226171754 0  -0.1136136594712047 0.0428084044537857 0  -0.113526383098718 0.06949936267301912 0  -0.002312773411525084 0.05922711625796673 0  0.04612867834591947 0.09118715625326625 0  0.0525 0.1 0  -0.0525 0.1 0  -0.05642436013397981 0.09226832717651308 0  0.12 0.01875 0  0.0375 0.1 0  -0.1021974954105155 0.06059626541185022 0  0.04989633308677061 0.02348577305550612 0  -0.12 0.03125 0  0.003928287502683688 0.08448841352572942 0  0.1030125400079595 0.05335714910633224 0  0.1025673057510353 0.0660868
[...]
<PointData  Scalars="f_29"> 
<DataArray  type="Float64"  Name="f_29"  format="ascii">1.0341315497922556e+01  1.1259022104761470e+01  5.0000000000000000e+01  4.9999999999999993e+01  5.0000000000000000e+01  5.0000000000000000e+01  5.0000000000000000e+01  5.0000000000000000e+01  5.0000000000000000e+01  5.0000000000000000e+01  5.0000000000000000e+01  5.0000000000000000e+01  5.0000000000000000e+01  5.0000000000000000e+01  5.0000000000000000e+01  5.0000000000000000e+01  5.0000000000000000e+01  1.1261634284732470e+01  1.0341207208326635e+01  1.3372344227915686e+01  1.1496618501357077e+01  1.1495398575591068e+01  1.0762203940132263e+01  1.6391255197777799e+01  1.0762972069168033e+01  1.6406725956570629e+01  1.3306195518257031e+01  1.5998424894702620e+01  1.5492975122665843e+01  1.9270959417192202e+01  1.1131066778165001e+01  1.2438960041379090e+01  1.0618846236936459e+01  1.2018307911686479e+01  2.2366850207349696e+01  1.2730845300026795e+01  1.0618400931962045e+01  1.2731749971292297e+01  1.0855455978820162e+01  1.3234493240789885e+01  2.4992290085905530e+01  2.6539056848611065e+01  2.5473270813656939e+01  1.7155135823137318e+01  1.5481256944153712e+01  1.2633462559096539e+01  1.2309415941950160e+01  1.1106039429760090e+01  1.2308639269827269e+01  1.1105147474622576e+01  1.0458145872327771e+01  1.0458052487566858e+01  2.6482258024743597e+01  1.4344534420422855e+01  1.1247039205761116e+01  1.6490911110253791e+01  1.4012594098716372e+01  1.1151847905246949e+01  1.7345222553967876e+01  1.2509928059729454e+01  2.9443429810809764e+01  2.5636189558305741e+01  1.2400519457383171e+01  1.1067355318550998e+01  1.0981625013884093e+01  1.0522728194839928e+01  1.0409391361213098e+01  1.7803143543123067e+01  1.4604233597004107e+01  1.2835314963990230e+01  1.4144780733499640e+01  1.1695704828142315e+01  1.2621505096643013e+01  1.3685043001652492e+01  1.1471200039766259e+01  1.1122967914336330e+01  2.0667920646501802e+01  1.1288541555665224e+01  3.1169611967293161e+01  3.2203478706247367e+01  1.9731975947487562e+01  1.6545559005570166e+01  1.0482224143478870e+01  1.1668895415493703e+01  1.3191190766266406e+01  1.0730432430400548e+01  1.0943300719198463e+01  1.4065849290702992e+01  2.1344216926433489e+01  1.0592679157734603e+01  1.0408931415635445e+01  1.0981598129160304e+01  1.3196155552966568e+01  1.2111763303060759e+01  1.2112933481672643e+01  1.0648158410067701e+01  2.0788315775008119e+01  1.2058358893624977e+01  2.1911929387879351e+01  3.3742376418823746e+01  1.0770785392569922e+01  1.2975195466871957e+01  1.4890720914373647e+01  2.3155108590798388e+01  1.1219459107408101e+01  1.0688273277118084e+01  3.4024964620323978e+01  3.5683403242916413e+01  2.0916202937912335e+01  1.1788250583083972e+01  1.1509187485222226e+01  1.1217624634106876e+01  1.1968489440945547e+01  1.3914499317017020e+01  1.2743027672756781e+01  1.7192557173748224e+01  3.5058839508353586e+01  1.3779896650666027e+01  1.4044465146181759e+01  1.6969383860383417e+01  1.3300751516652463e+01  1.4301094081463518e+01  1.6135845664470715e+01  1.0371610089690446e+01  1.3842219462339305e+01  2.0440172704195845e+01  1.8536374899948981e+01  1.3838197108760953e+01  1.0592817317761080e+01  1.0944017082739107e+01  1.1220560636600563e+01  3.5598694998111888e+01  2.0409141521679402e+01  1.1507173739316777e+01  1.0371630083515699e+01  1.8364810601324262e+01  1.8389442051426169e+01  1.1317634898669501e+01  1.2243537391493117e+01  1.2191151448450558e+01  2.5028204563682358e+01  1.1512770020452951e+01  1.4127994387187256e+01  1.0553110929399342e+01  1.4782473730839737e+01  1.6090310702892367e+01  3.6484949129874252e+01  1.0742972011292903e+01  1.2647581917147503e+01  1.3707519956985182e+01  1.4160753443964730e+01  1.5930731220605987e+01  1.6468390033464967e+01  1.7315721355245451e+01  1.1830979875313716e+01  1.0987683466393865e+01  1.1037140558053283e+01  1.0930258276883688e+01  1.1708713677505978e+01  1.1440620537625348e+01  1.1285659356150614e+01  1.3871876503677738e+01  1.3541127349921096e+01  1.5579777488470109e+01  1.3181112992387733e+01  1.1598391078815011e+01  1.3151243202013019e+01  1.3856107065967626e+01  1.2399604642459039e+01  1.1631911895914463e+01  2.0336080359424130e+01  3.0480662733931965e+01  2.6326541848149898e+01  2.8545484806156303e+01  1.0840676900478659e+01  1.0968651422917800e+01  1.1658124478321325e+01  1.3183275802261200e+01  2.4973752090350743e+01  3.7740251298865772e+01  2.7272412356270049e+01  2.3483992418155815e+01  1.0740507723239626e+01  2.7961960029234689e+01  1.5310113123178253e+01  1.1755477379686271e+01  1.2497891178073779e+01  1.2709244319241565e+01  1.0549222006196709e+01  1.0482181514366344e+01  1.0495648026589668e+01  2.0837311228568723e+01  1.1270400935824270e+01  1.1802519619194271e+01  3.8444382908096721e+01  1.1286736637715496e+01  1.0357972630550460e+01  1.0395836531624422e+01  1.0358242751576178e+01  1.1270474780273078e+01  1.1365079845785628e+01  2.1101624101130007e+01  1.3617978505440721e+01  1.0964994461141300e+01  1.2752762377352994e+01  1.2876718831265036e+01  3.8284877511598467e+01  1.8098163421403495e+01  1.1854008747023959e+01  1.0386375708507350e+01  1.0780697083508311e+01  1.0941392739455814e+01  1.0502783946680310e+01  1.4902807947147194e+01  1.5079270801656264e+01  1.3854616985652406e+01  2.5267274973700225e+01  2.8251660643554750e+01  1.1838778038687831e+01  1.5473116726350984e+01  1.4500006475411777e+01  2.7432104505981613e+01  1.7693940415199439e+01  2.2943500321437771e+01  1.1099860324718371e+01  1.1798861788995431e+01  1.3008914210314497e+01  1.1682497562063194e+01  1.2719281832130973e+01  1.4909051615721605e+01  1.1814165928785441e+01  1.8705586368557071e+01  1.1316754813168323e+01  1.1027514832707439e+01  1.2966231772137171e+01  1.0712552845046904e+01  1.0444946710346183e+01  2.1682788141824414e+01  1.2426741422937473e+01  1.1369882931377621e+01  1.8665250733373167e+01  3.9302794592690709e+01  1.6102584730160888e+01  1.7306324210547764e+01  1.8026596230812562e+01  2.2709817942822994e+01  1.2429652347023616e+01  1.2393753112052798e+01  1.3679215847756986e+01  1.2370013666719462e+01  1.4644574377826318e+01  1.9062390659951578e+01  1.0907302604764736e+01  1.0533604320032886e+01  1.9905596254588492e+01  1.2212375044140888e+01  1.1796750086996786e+01  1.1794489620528141e+01  1.1721751108190041e+01  1.1170016260603266e+01  1.2432914387790543e+01  1.0826359090794373e+01  2.1375534461920939e+01  1.1028246139747992e+01  1.4208052035685709e+01  1.0943108055795237e+01  1.0722972070631096e+01  1.0673631463841630e+01  1.8207025465055242e+01  1.9150254309846865e+01  1.1310070056945328e+01  1.5133984987271914e+01  1.2411020630873281e+01  3.0905032322682700e+01  1.4596784000896680e+01  1.3165255547900564e+01  1.3184054300790768e+01  1.5150710906612135e+01  2.3197429833005508e+01  1.8220725320934257e+01  1.1447622067673063e+01  1.0635535016660000e+01  3.0796849367870539e+01  1.3621683611045274e+01  2.4339049677327218e+01  1.8597941174346492e+01  2.4625822656366832e+01  1.1255208631104543e+01  1.0761326207332822e+01  1.2991487841331557e+01  1.3420755036930768e+01  1.2992527855520366e+01  1.3323586728275911e+01  1.1221358040553412e+01  1.1222019271086761e+01  1.0779984332682361e+01  1.0495862303532968e+01  1.3325061171644823e+01  1.0844394575227390e+01  1.0732476691840491e+01  3.9740760162511599e+01  4.0278965424795373e+01  1.6266493885997733e+01  1.5948209073426453e+01  1.1040195680312886e+01  1.1133725231579843e+01  1.5816937143267415e+01  1.0519981132460730e+01  1.0588049262720169e+01  1.0349285995649712e+01  1.6262789399182708e+01  1.6934654520117022e+01  1.1570866166413808e+01  1.1174731406373338e+01  1.0644732204875430e+01  1.0407610395789172e+01  1.0579176997507357e+01  1.1738235272775219e+01  1.2796285121375918e+01  1.3525748138615056e+01  1.3247386328167734e+01  1.2967752664294244e+01  1.2668541692638509e+01  1.2060804685288579e+01  1.4062475209365878e+01  2.0523686803474487e+01  1.0881783809287667e+01  1.0601327973837527e+01  2.0924216272857329e+01  4.0665883260620483e+01  2.8745643757726619e+01  1.1076588273966641e+01  1.1583659627109952e+01  2.0732381286075292e+01  2.3974277290919936e+01  1.0459224466885797e+01  2.3760138534199438e+01  1.1066256838787723e+01  1.2398962284269400e+01  1.1255584878176782e+01  1.1750154144172503e+01  1.1413814619621547e+01  1.1985206035244005e+01  1.8123605539106865e+01  1.2959762262430782e+01  1.4710750031863849e+01  4.1001629604696319e+01  1.3481072048288315e+01  1.3676218537090518e+01  1.2945229527655668e+01  1.1567364656784202e+01  1.1516067134610809e+01  1.5694997151807986e+01  1.3217228681747500e+01  2.0510503281634204e+01  1.0806541211632789e+01  1.0621042696086731e+01  1.2538126172110562e+01  1.3297635228527300e+01  4.1425093060104295e+01  1.3070071999130612e+01  1.0570554801024942e+01  2.1588600282724002e+01  1.8442016036963057e+01  1.2454903089447402e+01  1.1229484486460587e+01  1.5066462935932352e+01  1.4923454610318565e+01  2.5686297655139455e+01  1.2020394891571735e+01  1.2256750249088995e+01  2.3703277400905865e+01  2.6175654494338062e+01  3.2778211529138488e+01  3.0562349012252064e+01  3.2107408158681274e+01  1.6703252142620396e+01  1.3446509861601518e+01  1.4668180179220268e+01  1.3390083613449837e+01  2.0881389404192483e+01  1.0926544524152519e+01  1.2246201712962725e+01  1.0349243686842332e+01  1.4715125274059874e+01  3.1354262519264587e+01  1.6236482101966054e+01  1.6434122218861400e+01  1.4825399087167542e+01  1.4327268632098276e+01  1.3296937275298657e+01  1.3270352985963672e+01  1.3167676804710300e+01  4.2001020297204064e+01  1.1018798341371740e+01  1.8515993877141753e+01  1.1808156126667427e+01  3.2526129062587039e+01  3.3328494852259780e+01  2.6134844374233989e+01  1.3053144934723306e+01  1.4728616397559493e+01  1.1320532711089161e+01  1.1249850022834988e+01  1.9968539080368298e+01  1.8081775708634442e+01  3.4998756696633443e+01  2.0392533450322691e+01  1.5361057025497322e+01  1.1801011734746750e+01  1.2625663171628903e+01  1.2579396176003394e+01  1.1978020823701508e+01  1.2006307056349888e+01  1.1161411054252868e+01  1.4768068902765995e+01  1.4231634073975901e+01  2.1678693744520395e+01  1.4765867676893256e+01  1.6116941949037169e+01  1.6333673478967910e+01  1.8718697846077681e+01  1.6819154032841467e+01  1.8577972038198769e+01  1.9072695414320975e+01  1.2592959941487640e+01  1.2038596828324717e+01  1.4962432738187211e+01  1.6175900970332332e+01  3.0647003469909997e+01  1.1831812930550466e+01  1.4973821568344448e+01  2.3184960404090234e+01  1.3501659491937996e+01  1.0520716459035654e+01  4.1868264295889546e+01  1.1251747805944879e+01  1.1168332288161826e+01  1.0407891357043264e+01  1.1323394420746125e+01  1.8183503836932054e+01  1.4963389045311907e+01  2.3144670910064288e+01  1.0852477724627802e+01  1.0675110949689424e+01  1.1832032168798184e+01  1.0408346843811751e+01  1.0853077515793872e+01  1.3585087071331081e+01  1.3697659538995527e+01  1.2117619693960169e+01  1.7582132582357819e+01  1.9670327089113531e+01  1.6705014210776209e+01  1.2364523319535030e+01  1.3798730587258895e+01  1.1119156197598562e+01  1.6964731873060558e+01  3.2902433992760905e+01  1.2582422815612397e+01  1.5403854839664470e+01  1.4947920751297548e+01  1.7411080965553083e+01  1.4028681368501422e+01  1.3730549870032609e+01  1.1779495770808426e+01  1.2330545134902083e+01  1.0453968315986813e+01  2.7658906723846020e+01  1.1185945527480683e+01  1.1376084009029084e+01  1.1560941505393698e+01  1.8529196348521673e+01  1.2070979374272868e+01  1.5779255454129922e+01  1.0661960101788088e+01  2.4812606004099074e+01  1.6557822863420387e+01  1.1502291200660807e+01  1.3955519842040092e+01  2.2847830544433030e+01  1.4024016074080723e+01  1.0510495728006042e+01  1.0501134366883555e+01  1.1394365320228628e+01  1.4433732860075386e+01  2.1996967080213622e+01  1.2957074607973061e+01  1.3405663976151578e+01  1.0439802984880883e+01  1.0705795455449145e+01  1.3720643917758869e+01  2.4427977123994559e+01  1.1316089088407486e+01  1.1150526799414898e+01  1.1300401750922886e+01  1.1446958120369580e+01  1.1348437214283500e+01  1.1442004198052725e+01  4.2242499357510518e+01  4.2150228567720198e+01  1.4039487955885955e+01  1.5897066841429725e+01  1.4103891598963624e+01  1.5464031313294827e+01  1.1107755180523865e+01  1.0895207927669130e+01  1.2109987805574809e+01  1.2100224591498918e+01  1.1638083881465729e+01  1.8648525240059833e+01  1.3513011560143811e+01  1.0693860892856224e+01  1.0419055720560770e+01  1.0817870670660255e+01  1.1033431898829914e+01  2.8190014555541200e+01  1.5302394464875798e+01  1.4162045041706358e+01  1.3354410924175143e+01  1.6887434317119943e+01  3.5770063540885204e+01  1.7901641325083808e+01  1.1378900143970444e+01  1.1274894681349313e+01  2.2651769029907520e+01  1.0384225556183297e+01  1.0357132369279407e+01  1.0453211246812923e+01  1.1411717596149307e+01  1.1502242910461844e+01  1.1290360104618578e+01  1.2004651817782316e+01  1.9767349705575292e+01  1.1046571954897205e+01  1.0383615583521699e+01  1.1041727641962389e+01  1.0828181812422589e+01  1.0880774096437602e+01  2.8377420273179936e+01  2.3671937069009541e+01  1.1395903131049000e+01  1.1538869016774461e+01  1.1926919353406934e+01  1.4021369653044506e+01  1.1048388347052038e+01  1.2355631829708129e+01  1.0947026458460973e+01  2.7626955134688025e+01  1.0706882100344965e+01  2.7693925741524623e+01  1.1269476957273305e+01  1.2926779103751221e+01  3.5235348659510855e+01  1.8909366515332039e+01  1.1719991748366960e+01  1.4360099080151576e+01  1.0892564499110751e+01  1.0835182751763643e+01  2.3112569279079654e+01  3.1731824893871401e+01  2.7165764373659208e+01  2.8304584932554857e+01  1.0453081419471166e+01  1.1138879078939635e+01  1.7083756929502368e+01  1.1922067850823728e+01  1.3295524121191310e+01  1.1731568514093230e+01  1.0440549240867796e+01  1.2578622581333244e+01  2.2408676143863651e+01  1.2141419404593748e+01  1.2906462185394377e+01  2.3277044610186078e+01  1.3518089279006535e+01  1.1982350266293560e+01  1.3524155258224566e+01  1.2986289441893470e+01  1.3762092447556663e+01  1.3436890587137663e+01  1.3160469625562531e+01  1.2891832521238586e+01  1.3328280514587929e+01  2.3270722139854531e+01  1.9695819894320852e+01  2.7943806917830749e+01  1.0744713444096105e+01  1.5174774413727476e+01  1.4881417249501450e+01  1.1010841326654107e+01  1.5894401919186480e+01  3.5749013458853568e+01  1.1371854479193154e+01  1.2307510671010839e+01  2.9711808475838282e+01  1.9665514729181492e+01  1.0903103739842585e+01  1.0845322976830833e+01  1.0625490972754218e+01  1.1398064245545987e+01  1.1649725922242897e+01  1.2066500890828344e+01  1.0375181263880584e+01  1.1178082476508438e+01  1.6162655932045038e+01  1.3271731982705139e+01  2.0589938810825402e+01  1.3136615556318405e+01  1.1257035485583261e+01  1.2109788236979975e+01  1.1644840482950061e+01  1.4010999514593463e+01  1.0570708770140847e+01  1.5065816347392019e+01  1.0778206001529119e+01  2.7736483446092439e+01  1.7125698567465836e+01  2.4395607374911098e+01  1.1061003116685617e+01  1.0559340084755110e+01  3.3257293956919568e+01  1.0629560588036369e+01  2.1198187598923937e+01  3.4720381474266269e+01  4.3215558305033255e+01  2.8203557516284022e+01  1.1544118955114532e+01  1.2513045135394577e+01  1.0874351308299049e+01  1.1791839520602368e+01  1.4544731778345469e+01  1.0653930627754759e+01  1.0533079875761215e+01  1.0552601169469384e+01  1.0593585019398606e+01  1.4756781640337161e+01  1.4234179863830155e+01  1.0401982601790406e+01  1.0834624067917822e+01  1.6657760541074108e+01  3.6885357566478696e+01  2.8716847397578313e+01  3.4094777240706421e+01  1.0999349494636261e+01  1.3563751471037756e+01  4.3582721788815597e+01  4.2950172792671459e+01  2.2720810736333483e+01  1.3360290363737448e+01  1.9367530165589013e+01  2.2814172928866967e+01  1.1000437499329188e+01  1.3158322760776398e+01  1.1105465440556676e+01  1.0858818147912043e+01  4.3316155724537737e+01  1.1659485372068609e+01  1.0918763833386205e+01  1.1166342573173656e+01  1.0962223974849877e+01  1.8731048886092093e+01  1.2649469308293085e+01  1.1455563031216457e+01  3.1698962580789551e+01  2.3183268797024461e+01  2.0257819435761174e+01  1.2194128159017703e+01  1.7465181567628981e+01  1.0972785449461956e+01  1.7628257008013897e+01  1.4957980634632980e+01  1.0345638409113066e+01  1.0356677956601439e+01  1.5048578538571023e+01  1.3086926673963708e+01  1.0669695345636303e+01  1.1736915114576970e+01  1.6440041060264637e+01  1.1393043831678062e+01  1.1541519017187435e+01  1.9464077446905662e+01  1.9405651927131341e+01  1.4133366994586625e+01  1.1092104079417727e+01  1.0375777944927567e+01  1.1287658483811413e+01  1.4906867803368838e+01  1.0519820199973074e+01  2.9123953142235457e+01  4.3055385212932279e+01  1.2259958871277661e+01  1.0582809097418583e+01  3.7675163413926803e+01  1.2870525577097274e+01  2.5359096788756638e+01  4.3771492023257103e+01  1.8670188276419207e+01  3.0996173426241558e+01  1.0728098093695275e+01  1.1355277865666922e+01  1.7280593201478940e+01  1.0619232141426908e+01  1.4502555348055255e+01  1.7269638223828171e+01  1.3271975527921910e+01  1.2757389452667208e+01  1.2660526086857768e+01  1.1630920290947932e+01  1.2266368032172242e+01  2.0173192712088600e+01  1.5631003472765727e+01  1.1545109348333439e+01  2.1845838770607472e+01  3.6208348535463386e+01  1.4918503352725095e+01  4.4567446299400842e+01  1.3472322679195550e+01  1.7926046861412654e+01  1.4917750567385850e+01  1.7215805611344145e+01  1.7778517937100816e+01  1.7236795866112068e+01  2.1795715372846107e+01  1.2936918484649027e+01  3.1081885870871108e+01  2.8513594848391399e+01  1.3053103489521140e+01  1.0561739366372937e+01  1.0792803773304509e+01  1.2849298944802243e+01  1.2151642783289644e+01  1.3822588316319854e+01  1.3288876502408231e+01  1.3868268363251733e+01  1.4769459594879184e+01  1.5983857841060445e+01  1.6033647558524635e+01  2.5635342462279400e+01  1.1030705462226111e+01  1.1243739527948200e+01  2.0696884170406161e+01  1.3491995035115071e+01  1.9425855379546967e+01  1.2900756258728059e+01  1.0824847058499611e+01  1.7616270276487782e+01  1.5765081322575940e+01  1.4308883144670636e+01  1.2562410268946113e+01  2.6213125563940974e+01  1.2462024340394324e+01  1.9578778704049931e+01  2.5984042951797480e+01  1.3407671279890884e+01  1.2307895831498245e+01  1.2014926618321885e+01  1.2147625796207997e+01  2.6525623217346972e+01  1.1478438965127038e+01  1.1851023867328649e+01  1.2180775245869784e+01  2.2887071512462587e+01  3.7480407067561401e+01  1.1077164799616760e+01  3.0564948436871799e+01  1.2514735608310561e+01  1.2611647697200098e+01  1.2043233671382710e+01  1.5270694768474110e+01  1.3927931187125301e+01  1.2447620207458463e+01  1.3718194870553319e+01  2.1988592452244720e+01  1.1152975902438145e+01  1.3460060008097940e+01  1.2232942890552264e+01  1.3650748298135632e+01  1.1556920485222157e+01  1.9202413516284135e+01  1.9372448638711255e+01  1.2990679771590262e+01  1.8160905224473979e+01  1.6560567638712509e+01  1.2727324636208539e+01  1.0440292195812598e+01  1.2027232217507338e+01  1.2480726280335269e+01  1.7231249971600555e+01  1.1471204052831350e+01  1.1390522808991269e+01  1.3266339074939324e+01  1.1619052381172787e+01  1.2945987475277635e+01  1.2697487498243069e+01  2.2226822397759783e+01  1.4090648082785053e+01  1.2435341215006330e+01  1.1394425453255199e+01  1.5632061549994994e+01  1.5519647849530376e+01  1.4351771687468521e+01  1.4265181524676960e+01  1.2057758163911499e+01  1.2029939648957717e+01  1.2737441243220459e+01  1.1277053975071412e+01  1.7618622837963375e+01  1.5542190114548330e+01  1.4847493777702770e+01  1.2274293060479142e+01  1.0487114824953652e+01  2.5216158497618334e+01  1.0732595223971224e+01  3.1228480343701477e+01  1.0757181470050790e+01  1.0710349043963285e+01  1.5002102479335059e+01  1.1643947767607095e+01  2.3456811170892784e+01  1.0496313416249384e+01  2.0261888223535578e+01  1.0511345409003711e+01  1.2964744675044610e+01  2.0685114867170345e+01  1.2336018186877084e+01  1.1175574836103664e+01  1.3945772802246452e+01  1.1410925891849240e+01  1.1183566856611133e