<?xml version="1.0"?>
<VTKFile type="UnstructuredGrid"  version="0.1"  >
<UnstructuredGrid>
<Piece  NumberOfPoints="2743" NumberOfCells="5270">
<Points>
<DataArray  type="Float64"  NumberOfComponents="3"  format="ascii">-0.12 0.1 0  -0.12 0 0  -0.01986476715483886 0 0  -0.01986476715483886 0.002321858282504599 0  -0.01879385241571817 0.006840402866513377 0  -0.01670975622825873 0.01099017956141612 0  -0.01372483275737467 0.01454747283146098 0  -0.009999999999999995 0.01732050807568877 0  -0.005736064654221804 0.01915979024630978 0  -0.001162896578209515 0.01996616316542536 0  0.003472963553338608 0.01969615506024416 0  0.007921595320783138 0.01836432213760548 0  0.01194317183405572 0.01604246385510088 0  0.01532088886237956 0.01285575219373078 0  0.01787265280646825 0.008975983604009244 0  0.01946089741159648 0.004612317414848803 0  0.02 0 0  0.12 0 0  0.12 0.1 0  0 0.1 0  0.06 0.1 0  -0.06 0.1 0  0.12 0.05 0  0.06999999999999999 0 0  -0.12 0.05 0  -0.06993238357741943 0 0  0.06954545454545454 0.05045454545454546 0  -0.05256818197129183 0.04876858210896794 0  0.03 0.06852793994995832 0  -0.01060230953534651 0.06012868531377026 0  -0.08590602075287224 0.07008722490344668 0  -0.08700383268980955 0.03297312682365156 0  0.09 0.1 0  0.09454951298701297 0.02545048701298702 0  0.04421726329698947 0.02908215157121827 0  -0.03 0.1 0  -0.09 0.1 0  0.03 0.1 0  0.094941534914361 0.0689649209486166 0  -0.045 0.07602120282224097 0  0.0137000972673793 0.04576151173676769 0  -0.04489857536612915 0 0  -0.02795527007175781 0.03755044438085961 0  -0.06241371758055736 0.02479853554667227 0  0.06931814492325854 0.02522317739079102 0  0.0562106357694593 0.07357769546517523 0  -0.09496619178870971 0 0  0.12 0.025 0  0.095 0 0  -0.12 0.025 0  -0.12 0.07500000000000001 0  0.12 0.07500000000000001 0  0.045 0 0  -0.0228302666921874 0.07883391093803507 0  0.09815763663419913 0.04717696422689629 0  0.04642316516164364 0.05216224004895101 0  0.015 0.08426396997497916 0  0.07685335020605615 0.08199579006851358 0  -0.03212624651891543 0.05871373573766032 0  -0.06454151582324234 0.06677080404579981 0  -0.007428983740834363 0.03973215840314246 0  -0.04143162460864844 0.02103341629232999 0  -0.07788632568368571 0.05127672197436213 0  -0.09902623975019198 0.05337871787903269 0  -0.075 0.1 0  -0.1014173577311382 0.0832008292773658 0  0.105 0.1 0  0.008793975861786027 0.06520032249375621 0  -0.003877486809385651 0.08128666365361911 0  0.04056005001669608 0.08426396997497916 0  -0.07890609788649815 0.0162597993618741 0  -0.1010699031813867 0.01892186545593956 0  0.08267954418645374 0.03858457665398622 0  0.08249999999999999 0.01250797385719048 0  0.1070573481575616 0.01294265184243836 0  -0.1072273189424094 0.0375 0  0.05487128127324764 0.0148172916808382 0  -0.07306292723448589 0.08234923187849305 0  0.02604316659281994 0.02760414390118441 0  0.03422315740010771 0.01291039266157378 0  0.02953764603397802 0.05164069645856708 0  0.05711184749668567 0.0394951990120913 0  0.1048403709991175 0.08290422259947053 0  0.07836733468041428 0.06502779237175893 0  -0.015 0.1 0  0.107641636468974 0.05970823073603768 0  0.12 0.03750000000000001 0  -0.07203199631147464 0.0369378911801824 0  -0.05383214135241159 0.01227496304049853 0  -0.12 0.0625 0  -0.105 0.1 0  0.075 0.1 0  0.015 0.1 0  -0.045 0.1 0  0.045 0.1 0  -0.10518488525811 0.06789183644845204 0  -0.04335959578005873 0.03636269925572742 0  -0.05884641539443965 0.08000585119468683 0  -0.02074261661302542 0.04996461834162433 0  -0.02653136512200803 0.0222624586885067 0  -0.08714978711530966 0.08578346506967012 0  -0.03506452979410112 0.08648708658184591 0  -0.04620947545617006 0.0616799095273325 0  0.0006562636529589983 0.05143519384945657 0  0.1057204605480501 0.03475816363918364 0  0.09074280792825767 0.08565566471894244 0  0.005667439598789157 0.03387418246945268 0  -0.03238167126048401 0 0  0.0383080886578613 0.04129238651963005 0  0.08505369180647195 0.05254495235246789 0  -0.1074830958943549 0 0  -0.12 0.0125 0  0.05414542183412842 0.08735675763730583 0  0.04308500944676981 0.07115822817126308 0  0.0649349230807125 0.06320229510900416 0  -0.05637247339858926 0.03632415216907382 0  -0.01542434356580282 0.02929607297537314 0  0.02778002500834804 0.08142901444438948 0  -0.06542774243586742 0.04799884169932159 0  -0.06661544991358234 0.0127173865239021 0  0.08192808295131557 0.02597463862592918 0  0.07006960615839669 0.03783311541884806 0  0.06988230421815755 0.01261762329223161 0  -0.12 0.08750000000000001 0  -0.08244928768306457 0 0  -0.05741547947177429 0 0  -0.03984291085584598 0.04859364585838993 0  0.08249999999999999 0 0  0.12 0.0625 0  -0.12 0.03750000000000001 0  0.12 0.0125 0  0.0325 0 0  0.0575 0 0  0.1075 0 0  0.12 0.08750000000000001 0  0.02042070411167864 0.06034025931465875 0  0.05702213417260474 0.02706267745085339 0  0.0675 0.09013045458016318 0  0.09478643990600856 0.0122865785926504 0  -0.04904630236735645 0.08801060141112049 0  0.02613192868361687 0.0398635327923046 0  -0.09569137037305205 0.04159910065917647 0  0.05140611894455763 0.0628291923813368 0  0.1085809652542695 0.07158881227331852 0  0.05796589338150855 0.05105903259253412 0  0.03841143349411784 0.06054564265388553 0  -0.02947166435407259 0.01113520957350828 0  -0.1102478054683027 0.05625 0  -0.09068017366517905 0.01182794374687028 0  -0.01434600857542353 0.08772663538203848 0  -0.03362945317777148 0.07517582904977035 0  -0.01235387050651601 0.0723330924144738 0  -0.02307888867457602 0.06674121501662693 0  -0.002185408069912574 0.06756456274836646 0  0.0678638500046832 0.07452078468888843 0  0.08597040057425252 0.07558162872540394 0  0.09674588960513322 0.05809991882890109 0  0.1094709655577269 0.04555436451412986 0  0.09473770132491341 0.03658207429318428 0  -0.06454868296360231 0.08970720561340952 0  0.1088432154030167 0.02400081163981114 0  -0.07748216799376378 0.02726807518039781 0  0.0075 0.09213198498748959 0  0.01849963805527029 0.07258270415679953 0  0.0225 0.09213198498748959 0  -0.07477959581424944 0.07129038985899076 0  -0.05389685222033951 0.06954987308797576 0  -0.05952130701477828 0.05712689877479761 0  -0.09084078800149091 0.02274804774342801 0  -0.09837161430440977 0.03085986409994825 0  -0.05131093786741553 0.0263250162658456 0  0.01635618606258252 0.03530907600454269 0  -0.03460613037873773 0.02922068783924693 0  -0.04043226315035484 0.01006625299372829 0  0.08175024910257063 0.09159737271826002 0  -0.09494035380298299 0.06367583527464522 0  -0.0886934906578859 0.04994210372431981 0  -0.02490130542947547 0.09038352188878838 0  0.04417108737523257 0.01793664269923905 0  -0.003940932065510782 0.02996170313966536 0  -0.01783357510351885 0.03997209276407525 0  -0.009556322084365085 0.04984630266759408 0  -0.09566755421412014 0.074271403467777 0  0.0355203970594753 0.02354533265972011 0  0.006555555071563847 0.07647100871020274 0  -0.07937685857812513 0.06175606142440594 0  -0.082228823034201 0.04201720146426499 0  -0.06983948840172999 0.05776693996935201 0  -0.09555085505908593 0.09149315155487603 0  -0.1098516392886323 0.0771584086134595 0  0.0975 0.1 0  0.01159727503865655 0.05556931308228881 0  -0.1115659278883601 0.01875 0  -0.1012246438415323 0.008426566493923617 0  0.01474516449273796 0.0255393740673827 0  0.08779480154260712 0.06219573447921576 0  -0.1125 0.1 0  -0.109677715301956 0.0898066291811736 0  0.1125 0.1 0  -0.1076436806656361 0.02771938223489072 0  -0.1109003748179492 0.009075404417277109 0  -0.03013785075543634 0.04712089514258909 0  -0.004952464847218618 0.0912677883600678 0  -0.1065795284902037 0.04722264329381553 0  0.04842831953664987 0.07898377417315099 0  0.03252098192319938 0.09028046125939154 0  0.02476218534733019 0.01628634550873906 0  0.04791904264346727 0.04258131505029045 0  0.06144185941573184 0.08140605316446399 0  0.1108170457022867 0.09049022742137205 0  -0.08249999999999999 0.1 0  -0.07849279483093181 0.09068500987040669 0  0.09901040145429967 0.0905247702494426 0  -0.07619083563024201 0.007152163970009891 0  -0.03784209605914159 0.06649148111429766 0  0.03557615988040569 0.07650767001919569 0  0.03302905362294855 0.03368357951329398 0  0.001528049998133968 0.0421884697145129 0  -0.06677219502603519 0.0755735126223121 0  -0.07078299185927128 0.02093806600642789 0  0.07624698700554428 0.01898789084580359 0  0.0425071772133816 0.008872273040118464 0  0.06222675218673776 0.01983691994242202 0  0.05125 0.006533019494560529 0  -0.08112674022156063 0.07793832028046994 0  0.0894563302875119 0.04461415956113914 0  0.07600555403016987 0.04440122631805228 0  0.1011730931788228 0.01956623203424818 0  0.08875791189114002 0.01876216216110217 0  0.07625 0.006253986928595243 0  0.10125 0.00625378014893175 0  0.06159289116562519 0.008367939956509781 0  0.1133219866490167 0.006678013350983326 0  0.12 0.03125 0  0.08875 0 0  0.09447377394606553 0.07772073910541109 0  0.1125347363168419 0.07917181005820358 0  -0.0360489221788708 0.04088174671649498 0  0.07238835401788725 0.0586903785336876 0  0.07770534388963661 0.0735202678075017 0  -0.02352204721963873 0.05812853133009549 0  0.02771469012026706 0.007208889738796465 0  0.06289457418076626 0.0332368862735679 0  0.02997504279709136 0.060078672135782 0  0.0379740367310045 0.0521076669766706 0  0.02209772318747019 0.04741115745969623 0  -0.0375 0.1 0  -0.04152152214341864 0.09214855581173653 0  0.07670804270236463 0.03261307516989712 0  0.08846339346732941 0.03112076208171376 0  0.06426407185079112 0.0439136177978413 0  0.05037140838704721 0.03465168226171754 0  -0.1136136594712047 0.0428084044537857 0  -0.113526383098718 0.06949936267301912 0  -0.002312773411525084 0.05922711625796673 0  0.04612867834591947 0.09118715625326625 0  0.0525 0.1 0  -0.0525 0.1 0  -0.05642436013397981 0.09226832717651308 0  0.12 0.01875 0  0.0375 0.1 0  -0.1021974954105155 0.06059626541185022 0  0.04989633308677061 0.02348577305550612 0  -0.12 0.03125 0  0.003928287502683688 0.08448841352572942 0  0.1030125400079595 0.05335714910633224 0  0.1025673057510353 0.0660868
[...]
<PointData  Scalars="f_29"> 
<DataArray  type="Float64"  Name="f_29"  format="ascii">1.3752784949437995e+01  1.6127811248267975e+01  5.0000000000000000e+01  4.9999999999999993e+01  5.0000000000000000e+01  5.0000000000000000e+01  5.0000000000000000e+01  5.0000000000000000e+01  5.0000000000000000e+01  5.0000000000000000e+01  5.0000000000000000e+01  5.0000000000000000e+01  5.0000000000000000e+01  5.0000000000000000e+01  5.0000000000000000e+01  5.0000000000000000e+01  5.0000000000000000e+01  1.6131752341201196e+01  1.3753067923650237e+01  2.0446350585468068e+01  1.6806616268703337e+01  1.6804533690716706e+01  1.4922575761990185e+01  2.2227662751594170e+01  1.4923343500405718e+01  2.2243593028995551e+01  1.8828231620351069e+01  2.2024690161764735e+01  2.2083304283441912e+01  2.5806103899706326e+01  1.5598985193794112e+01  1.7638894211701317e+01  1.4595119847670700e+01  1.7100938416108274e+01  2.7945400405860951e+01  1.9307809752363113e+01  1.4593713485740968e+01  1.9308793173761693e+01  1.5023535718751692e+01  1.9380636014222056e+01  3.0541454650811868e+01  3.1414516709330879e+01  3.0764374407746999e+01  2.3019342574170349e+01  2.1277014856502827e+01  1.8347848857901905e+01  1.7577367169609456e+01  1.5770816385573779e+01  1.7576511213167269e+01  1.5768948645272044e+01  1.4099830900091714e+01  1.4100198128615311e+01  3.1367172660208951e+01  2.1142417515352612e+01  1.5800165230638509e+01  2.2637074368056386e+01  2.0966121037430074e+01  1.5800104389509460e+01  2.3760421405489449e+01  1.7962324939260473e+01  3.4132463606235625e+01  3.0714136405948892e+01  1.7585536235211567e+01  1.5454462027108656e+01  1.5575009910309907e+01  1.4273350006992423e+01  1.3969064202520512e+01  2.4541550323351217e+01  2.1647675616207710e+01  1.9094059946063112e+01  1.9792362087685245e+01  1.6689572009639349e+01  1.7872855640706568e+01  1.9263421197973603e+01  1.6402073183386953e+01  1.5673972614965368e+01  2.6343764330584058e+01  1.6104569777622132e+01  3.5336947777911881e+01  3.6063778814858964e+01  2.5933291673614345e+01  2.2483007877038002e+01  1.4162350168419980e+01  1.6550620568674798e+01  2.0137751590476441e+01  1.4780473025765774e+01  1.5378260299730615e+01  1.9697348945042883e+01  2.6947742649014359e+01  1.4473649939529864e+01  1.3967238450624633e+01  1.5575410646090065e+01  2.0142462184109032e+01  1.8117300505996301e+01  1.8119018316073898e+01  1.4570454654026666e+01  2.6601054572779852e+01  1.7571550700370917e+01  2.7930215838035348e+01  3.7350641941299934e+01  1.4940801718288863e+01  1.9422123433938797e+01  2.1071240225427065e+01  2.9109656067508269e+01  1.5855294840296610e+01  1.4727960211140307e+01  3.7717549642478865e+01  3.8812060479753605e+01  2.6796532791000452e+01  1.6666039853387140e+01  1.6488517199747907e+01  1.6032859499479262e+01  1.7622816477629087e+01  2.0160091633461587e+01  1.8238131754903588e+01  2.3123056170141268e+01  3.8470991151379202e+01  2.0464149354136882e+01  1.9745013172485407e+01  2.2814653850888618e+01  1.8771313642730867e+01  1.9979330999365565e+01  2.1963447027089988e+01  1.3848001739796652e+01  1.9459617542866784e+01  2.6119958598159865e+01  2.4673068820285014e+01  1.9454195064539761e+01  1.4474676376381421e+01  1.5378860181764383e+01  1.6037639448465843e+01  3.8744133079584024e+01  2.6091190738223123e+01  1.6486404903285329e+01  1.3848669858908041e+01  2.4897468365791021e+01  2.4249639412151197e+01  1.6311477312131132e+01  1.7469890484564040e+01  1.8071300583203318e+01  3.0426158706441072e+01  1.6261029120597218e+01  2.0144687485611300e+01  1.4343530474102527e+01  2.0678480656777747e+01  2.2445126066001112e+01  3.9463177140543841e+01  1.4828673567121353e+01  1.7994906731151069e+01  2.0675602818946160e+01  2.0687714047608747e+01  2.2820213747021246e+01  2.3145464515255728e+01  2.4143123901006842e+01  1.7005982403691590e+01  1.5351790197362874e+01  1.5383137099368376e+01  1.5270855504191088e+01  1.6590237706659334e+01  1.6579343102853652e+01  1.6054735700276186e+01  1.9458547425078912e+01  2.0590402138094515e+01  2.2406074245154706e+01  1.9985078351267667e+01  1.6514267130624109e+01  1.9011247937756885e+01  1.9647245466893224e+01  1.7631992619877462e+01  1.6515252256579025e+01  2.6087664874303854e+01  3.4890448019003401e+01  3.1365334877797451e+01  3.3088979982316332e+01  1.5173358009501522e+01  1.5246379560396162e+01  1.6457449455308375e+01  1.9929737165151476e+01  3.0134237326346671e+01  4.0592606501220004e+01  3.2336016586796966e+01  2.9345476971607560e+01  1.4785603820398624e+01  3.2674014550606451e+01  2.2298941145896919e+01  1.6661448675883712e+01  1.7700330281047027e+01  1.8094573840229522e+01  1.4377781032024041e+01  1.4158162103881443e+01  1.4233283800681878e+01  2.7132170125167491e+01  1.6072434881000557e+01  1.6886143189257282e+01  4.1093254081740255e+01  1.5846658339131332e+01  1.3806231115189325e+01  1.3922289597303054e+01  1.3807691246147295e+01  1.5999038360620887e+01  1.6264873265772859e+01  2.7099649527327948e+01  2.0684501680099654e+01  1.5315713622173604e+01  1.8737138299753575e+01  1.9395500282010101e+01  4.0900875657091262e+01  2.4115766431082708e+01  1.7229394262461430e+01  1.3894541899877305e+01  1.5045970647483918e+01  1.5421350968193897e+01  1.4240716755250316e+01  2.0651809508476930e+01  2.1483209597946317e+01  2.0323132148888195e+01  3.0524486274731796e+01  3.3208041534280156e+01  1.7046816693608001e+01  2.1263809796390863e+01  2.0194120896164986e+01  3.2166753344767102e+01  2.3545497825564233e+01  2.8353979465447019e+01  1.5622536646328172e+01  1.6688065337872807e+01  1.8396445042078057e+01  1.6666954153741944e+01  1.8063228823780367e+01  2.0659285858138368e+01  1.6908040526655267e+01  2.4508457599866091e+01  1.6203044109432049e+01  1.5584471149841614e+01  1.8411407459918593e+01  1.4736693692496445e+01  1.4058951812901064e+01  2.7492660977541153e+01  1.7689599172246844e+01  1.6116103611195921e+01  2.5108720933993339e+01  4.1667562384053511e+01  2.1967163798357792e+01  2.3770293682661560e+01  2.4253255984788687e+01  2.8576008684741279e+01  1.8742145042232067e+01  1.8570132881598944e+01  1.9224391433227119e+01  1.7553611145775868e+01  2.0422884091075773e+01  2.4957647927523041e+01  1.5258210181112329e+01  1.4302699768382318e+01  2.6393892882589654e+01  1.8200575367347358e+01  1.7464249060408793e+01  1.7461091969170354e+01  1.7232122524917333e+01  1.5921780046327779e+01  1.8746054004928034e+01  1.4968493572201504e+01  2.7017063248377937e+01  1.5585027014651375e+01  2.1267510172915596e+01  1.5229721315684532e+01  1.4738971907172081e+01  1.4691771897718253e+01  2.4029377741033727e+01  2.4927753447124115e+01  1.5888958141252441e+01  2.0949937146257358e+01  1.7605632245483775e+01  3.5043266109733459e+01  2.1576719475748060e+01  1.8599603250570620e+01  1.8608635280831844e+01  2.0919676663896730e+01  2.8676526261902975e+01  2.4258967808438520e+01  1.6445901882671574e+01  1.4539115501111333e+01  3.5067778315288521e+01  1.9192819172875971e+01  2.9579888938925183e+01  2.4417091070799600e+01  2.9805395815681376e+01  1.5779921183174626e+01  1.4890829979226204e+01  1.9781365785607399e+01  2.0377584304868201e+01  1.9782766945304111e+01  2.0365616988686320e+01  1.6167681613561644e+01  1.6169058098302468e+01  1.5045278090175357e+01  1.4233303832159519e+01  2.0366310821812345e+01  1.5052012489591915e+01  1.4896988943780404e+01  4.2072621588620223e+01  4.2457581856378205e+01  2.2134303452846503e+01  2.2503647579623006e+01  1.5571938611801574e+01  1.5922981684841170e+01  2.1746968288476694e+01  1.4274629646919518e+01  1.4447342648928487e+01  1.3779860889260521e+01  2.2424456448148366e+01  2.3223879049602889e+01  1.6424979980351562e+01  1.5720645807939174e+01  1.4598777863668673e+01  1.3953263767604977e+01  1.4404501276970040e+01  1.6594474147348603e+01  1.9333310130339182e+01  2.0194829516548126e+01  1.9587725890505997e+01  1.8413747458689844e+01  1.8513234841257177e+01  1.7201050135136690e+01  2.0264603409825622e+01  2.6911213183598793e+01  1.5206944783584248e+01  1.4532350422819915e+01  2.7170192888708240e+01  4.2836242956535926e+01  3.3576828455550853e+01  1.5735901833862865e+01  1.6730765097956631e+01  2.6416304515583843e+01  2.9593382713674742e+01  1.4111957297666516e+01  2.9583615339634274e+01  1.5629764642441479e+01  1.7948924039804698e+01  1.6057906093130384e+01  1.6628950488205625e+01  1.6059462222268536e+01  1.7130759727025080e+01  2.4727277427444886e+01  1.8343114465044025e+01  2.0733533091334667e+01  4.3087234151825207e+01  1.9129804545537691e+01  1.9477610208448571e+01  1.8378620221697982e+01  1.6902434075921807e+01  1.6462635354346350e+01  2.2678259299244925e+01  2.0102687655477538e+01  2.6350897594015013e+01  1.5006841882076870e+01  1.4534339490641512e+01  1.8808557461023522e+01  1.9057871097250889e+01  4.3372900475307112e+01  1.8509871672840188e+01  1.4405120148908077e+01  2.7486146729536113e+01  2.4535317835535121e+01  1.7952364656971863e+01  1.5780826110450569e+01  2.1737245886605603e+01  2.0943977300944297e+01  3.1158228427729430e+01  1.7029492312129850e+01  1.7362487306689328e+01  2.9028063174211741e+01  3.1446198231425313e+01  3.6757486422746240e+01  3.4718908446252513e+01  3.5969115235324644e+01  2.3588799252823723e+01  1.9451494219958267e+01  2.1113951092801987e+01  2.0398508771551644e+01  2.7095956779840272e+01  1.5312082109715424e+01  1.7934636588081759e+01  1.3780366775930515e+01  2.0941532976422835e+01  3.5602788803545778e+01  2.2273937760625220e+01  2.2270590756906227e+01  2.1546878996482668e+01  2.1170484068960253e+01  1.9789536782728419e+01  1.9516345777524883e+01  1.8954981659964865e+01  4.3772508901014540e+01  1.5529105496616035e+01  2.4466132078825183e+01  1.6743249198742681e+01  3.6372227208028683e+01  3.6945898905039435e+01  3.1473463220637701e+01  1.8498294262887296e+01  2.0599395005142377e+01  1.6217574308673147e+01  1.6105622055624050e+01  2.6189392393517679e+01  2.3964839980588074e+01  3.8448280243551203e+01  2.6181326615125318e+01  2.1144989800808457e+01  1.7424757415670470e+01  1.8785716043503374e+01  1.8551436203210866e+01  1.7593028619641036e+01  1.7861404552334502e+01  1.5856600061307617e+01  2.0498162623873920e+01  1.9881075764816696e+01  2.7239714614563091e+01  2.0496660051548645e+01  2.1943148272977439e+01  2.2168274751793632e+01  2.4962778511502457e+01  2.3423316625325327e+01  2.5170764225678120e+01  2.5438808519048159e+01  1.7939541929405998e+01  1.7189900083386959e+01  2.1902435196864992e+01  2.3063170450642652e+01  3.4786629071481215e+01  1.6938803103441863e+01  2.0730937139697751e+01  2.8560284970314342e+01  1.9033034687341978e+01  1.4275745558490213e+01  4.3668719641988929e+01  1.6108613154749449e+01  1.5918702385673212e+01  1.3955826026566315e+01  1.6221755874492278e+01  2.4005981531540733e+01  2.0719553783831305e+01  2.8525625613138750e+01  1.5152246403748443e+01  1.4694017425786528e+01  1.6938877123614372e+01  1.3956364662782178e+01  1.5153952157918908e+01  2.0384929094395098e+01  2.0776223362641865e+01  1.7271306165514794e+01  2.3492522335003898e+01  2.5440637207439721e+01  2.2567788184157141e+01  1.8302399671573280e+01  1.9405868730004538e+01  1.5902279002251376e+01  2.3682054248720775e+01  3.6756801655116853e+01  1.7862792241674004e+01  2.2381600587379825e+01  2.1836578742965795e+01  2.4194012715417312e+01  2.1063332887972749e+01  2.0584323891552632e+01  1.6836244734966414e+01  1.7600092440840456e+01  1.4083816804334360e+01  3.2541369240867425e+01  1.5699486378103435e+01  1.6080106645723294e+01  1.6452154180825580e+01  2.5209451230852196e+01  1.7107517241020169e+01  2.2006061831086203e+01  1.4644291737371660e+01  3.0083419970559895e+01  2.3330500256057881e+01  1.6472410162322277e+01  1.9944638751438575e+01  2.8312074953445254e+01  2.0378624218193181e+01  1.4232174965937176e+01  1.4216930709267949e+01  1.6233378733959412e+01  2.1445669277432728e+01  2.8143427411940547e+01  1.8323912614193770e+01  1.8891990245894963e+01  1.4053164385272391e+01  1.4833800743012780e+01  1.9311619477723990e+01  2.9827901776927458e+01  1.6026453085451053e+01  1.5675969536748202e+01  1.5860171292293167e+01  1.6346452403706817e+01  1.6109023596364967e+01  1.6118466947171211e+01  4.4055854990599066e+01  4.3893813303874659e+01  1.9686956895140309e+01  2.2370655613668621e+01  1.9838541899169687e+01  2.1374527276534057e+01  1.5743631796667762e+01  1.5142426287909837e+01  1.7207768009212632e+01  1.7517963241141384e+01  1.6565267252897804e+01  2.4459536913188163e+01  1.9040219623536490e+01  1.4670918683878911e+01  1.3987050873119172e+01  1.5047032577262344e+01  1.5433621359487992e+01  3.3020859151645979e+01  2.2088555621460319e+01  2.0827126416389547e+01  1.8881919012585076e+01  2.2738632812506449e+01  3.8960142043631521e+01  2.4232653090371478e+01  1.6519256512306129e+01  1.6170471176712681e+01  2.8275570166902678e+01  1.3890206634710630e+01  1.3804717998150124e+01  1.4103733112842868e+01  1.6282738913294029e+01  1.6431105168622654e+01  1.5939672242028324e+01  1.7191555713228475e+01  2.5575555879681971e+01  1.5525973768947088e+01  1.3889038187700605e+01  1.5515446901119265e+01  1.5038134362569540e+01  1.5097049980448109e+01  3.2979161372957883e+01  2.9047014203916401e+01  1.6113983962482632e+01  1.6297216866162142e+01  1.6991207580464046e+01  1.9634951838945796e+01  1.5412044164258408e+01  1.7598621739789195e+01  1.5470211603464341e+01  3.2398127741972274e+01  1.4723221800553690e+01  3.2536989531859064e+01  1.6111519665292438e+01  1.8342827448778557e+01  3.8497649862768426e+01  2.4734990976435252e+01  1.7072661994554398e+01  2.0031094940380800e+01  1.5095197130446188e+01  1.4987505725574797e+01  2.8745029409518448e+01  3.5682451834456977e+01  3.1966470931939618e+01  3.2881263742732735e+01  1.4102874582487390e+01  1.5585318499798237e+01  2.3094008393500523e+01  1.6934051488052500e+01  1.9318165007323863e+01  1.7130810865069900e+01  1.4047665588774498e+01  1.8978724048215483e+01  2.7912160962797071e+01  1.7196016935954663e+01  1.9587130077061893e+01  2.8793369491253262e+01  2.0044642000871200e+01  1.7832106925551347e+01  1.9161784393144377e+01  1.8540543604652708e+01  2.0774194727126655e+01  2.0509452723627817e+01  2.0046707489373581e+01  1.9539950125131654e+01  2.0333096459792149e+01  2.9124143666397057e+01  2.5759694219633218e+01  3.2831914329690228e+01  1.4902506289067768e+01  2.0986578020990425e+01  2.1916558406550475e+01  1.5332724823483046e+01  2.2613989951741743e+01  3.9035507415059989e+01  1.6509555019149342e+01  1.8480427756987979e+01  3.4127582434952572e+01  2.5658581814580359e+01  1.5144671378640709e+01  1.5001231663061514e+01  1.4528793101457993e+01  1.6072082221446998e+01  1.6536402726229568e+01  1.7117791336940435e+01  1.3858939705630927e+01  1.5901120493423244e+01  2.2546614976959887e+01  1.9930673566887439e+01  2.6258483647965598e+01  1.8549760985888646e+01  1.6085082389563041e+01  1.7310431082094262e+01  1.6676642332458620e+01  2.1081872366886440e+01  1.4389777406742439e+01  2.0839278120085702e+01  1.4856905967734436e+01  3.2531823747635912e+01  2.3681148856291024e+01  3.0001451644770949e+01  1.5439524310558486e+01  1.4355520704139769e+01  3.7120620739460357e+01  1.4534250314627492e+01  2.7448398542670073e+01  3.8154272690308183e+01  4.4799634549690744e+01  3.3112727882239000e+01  1.6714139809746985e+01  1.7726096279847020e+01  1.5125506424806904e+01  1.6674401261160874e+01  2.1142190034869408e+01  1.4665841533910704e+01  1.4315700412867976e+01  1.4402039338281790e+01  1.4516742778753182e+01  2.0700117091137464e+01  2.1154315090386248e+01  1.3937865085004603e+01  1.5180278261664119e+01  2.2647789015317052e+01  3.9936707720528254e+01  3.3237494978753531e+01  3.7590144589084375e+01  1.5418332251466820e+01  2.0460027126912042e+01  4.5029132564613263e+01  4.4523989857033477e+01  2.8519157063131196e+01  2.0426019221183466e+01  2.5900585800603238e+01  2.8771510696288420e+01  1.5468725045807716e+01  1.8583608766563536e+01  1.5772938964200524e+01  1.5185655796231860e+01  4.4862192944373142e+01  1.6649248097999855e+01  1.5266473692438570e+01  1.5812647349168758e+01  1.5434760372968807e+01  2.5371171071088053e+01  1.9023634103122639e+01  1.6162210875072827e+01  3.5887458168302274e+01  2.8871338391015954e+01  2.6282381497754479e+01  1.7346804791404843e+01  2.3588661676743811e+01  1.5537258512750499e+01  2.4341131386525063e+01  2.1518566449770486e+01  1.3767276280534482e+01  1.3803920380216834e+01  2.1409381694433542e+01  1.9678532115553800e+01  1.4669480954532204e+01  1.6939285021513061e+01  2.3340249817273492e+01  1.6319399254958512e+01  1.6519125082520560e+01  2.5439224327168873e+01  2.5173392539131122e+01  1.9792621171777085e+01  1.5483705282626014e+01  1.3861306750832801e+01  1.6161250550457193e+01  2.1191723962156782e+01  1.4302639361499761e+01  3.3550165568873005e+01  4.4653624318258451e+01  1.7500013991353317e+01  1.4456386124300442e+01  4.0386033504989754e+01  1.9272179744414039e+01  3.0895628817755654e+01  4.5164729807471964e+01  2.4570192053268272e+01  3.5284828235351966e+01  1.4826478548704026e+01  1.5959542506400998e+01  2.4031599393988127e+01  1.4514011499288429e+01  2.0203192886354223e+01  2.3358858123295001e+01  1.9396060629693238e+01  1.8866755788038930e+01  1.8497047975864440e+01  1.6538233999498821e+01  1.7978939029542389e+01  2.5882835443488347e+01  2.1434766304025999e+01  1.6279619149446454e+01  2.7812261607145143e+01  3.9244600262230378e+01  2.0660468183580871e+01  4.5796964459508089e+01  1.9011341732281615e+01  2.3895226244684558e+01  2.0658763768021757e+01  2.3060039662414891e+01  2.3613723663701755e+01  2.3081842539026923e+01  2.7422005716448794e+01  1.9102094810149389e+01  3.5432412235757482e+01  3.3412417094632694e+01  1.8717770602905237e+01  1.4386103234433417e+01  1.4934742130377090e+01  1.8533091996370246e+01  1.7254753625006661e+01  2.0401666076923942e+01  1.9659728788783038e+01  2.0220954891215754e+01  2.0492058752822587e+01  2.1803978521549563e+01  2.1863470874322790e+01  3.0659277862841122e+01  1.5438141952081331e+01  1.5949843808123880e+01  2.6844566357120044e+01  2.0570949536564317e+01  2.5845355250764374e+01  1.8283222587046811e+01  1.5073095084098417e+01  2.3454838776158116e+01  2.2046230625080803e+01  2.0192065843737296e+01  1.8964572267344256e+01  3.1568466854206495e+01  1.7664213277387418e+01  2.6006976148087006e+01  3.0969950047836466e+01  2.0459174025396969e+01  1.7661395936411530e+01  1.7404153662260985e+01  1.7480180471408897e+01  3.1815071351442150e+01  1.6180465288138798e+01  1.6759956972828910e+01  1.7256124426103710e+01  2.8790008708575463e+01  4.0321805344427005e+01  1.5685160245217517e+01  3.4775379382914544e+01  1.7778759607601579e+01  1.7861459227606179e+01  1.7157448838871584e+01  2.1046675345859889e+01  1.9530754245160946e+01  1.7801415350630222e+01  1.9755867964930136e+01  2.7522399316263463e+01  1.5870610901443072e+01  2.0352725101919027e+01  1.7808512919742874e+01  2.0672416452967141e+01  1.6601250262436402e+01  2.4976732817194897e+01  2.5537509567770336e+01  1.8458081223752803e+01  2.4010975189896381e+01  2.2409778049369535e+01  1.8069551414152752e+01  1.4050697445078104e+01  1.7817961052706810e+01  1.8580800914629936e+01  2.3075959417941483e+01  1.6338674530738906e+01  1.6300341752365551e+01  1.8776997002120034e+01  1.6627341950291047e+01  1.8332959501746735e+01  1.7973535908035775e+01  2.7861793339624217e+01  1.9731542646405913e+01  1.7708429694579092e+01  1.6323090436637219e+01  2.1437678973617754e+01  2.1317165475636578e+01  2.0042293542372757e+01  1.9939334712062951e+01  1.7243245321724139e+01  1.7194910573885494e+01  1.8165422427194301e+01  1.6151733106496053e+01  2.4209269433530334e+01  2.1603927495204069e+01  2.0685316778892812e+01  1.8438365632869392e+01  1.4175461995262220e+01  3.0385996970035276e+01  1.4786319231520743e+01  3.5375962699170131e+01  1.4821458753571413e+01  1.4754270668830511e+01  2.1114405726385758e+01  1.7134023630475557e+01  2.9049935203597897e+01  1.4208821980663613e+01  2.6681866871762988e+01  1.4277609185531679e+01  1.8402199815626940e+01  2.6464970774717887e+01  1.7549751996990445e+01  1.5811842127203700e+01  1.9850671309987291e+01  1.6133328020305353e+01  1.5731759862745088e