<?xml version="1.0"?>
<VTKFile type="UnstructuredGrid"  version="0.1"  >
<UnstructuredGrid>
<Piece  NumberOfPoints="2743" NumberOfCells="5270">
<Points>
<DataArray  type="Float64"  NumberOfComponents="3"  format="ascii">-0.12 0.1 0  -0.12 0 0  -0.01986476715483886 0 0  -0.01986476715483886 0.002321858282504599 0  -0.01879385241571817 0.006840402866513377 0  -0.01670975622825873 0.01099017956141612 0  -0.01372483275737467 0.01454747283146098 0  -0.009999999999999995 0.01732050807568877 0  -0.005736064654221804 0.01915979024630978 0  -0.001162896578209515 0.01996616316542536 0  0.003472963553338608 0.01969615506024416 0  0.007921595320783138 0.01836432213760548 0  0.01194317183405572 0.01604246385510088 0  0.01532088886237956 0.01285575219373078 0  0.01787265280646825 0.008975983604009244 0  0.01946089741159648 0.004612317414848803 0  0.02 0 0  0.12 0 0  0.12 0.1 0  0 0.1 0  0.06 0.1 0  -0.06 0.1 0  0.12 0.05 0  0.06999999999999999 0 0  -0.12 0.05 0  -0.06993238357741943 0 0  0.06954545454545454 0.05045454545454546 0  -0.05256818197129183 0.04876858210896794 0  0.03 0.06852793994995832 0  -0.01060230953534651 0.06012868531377026 0  -0.08590602075287224 0.07008722490344668 0  -0.08700383268980955 0.03297312682365156 0  0.09 0.1 0  0.09454951298701297 0.02545048701298702 0  0.04421726329698947 0.02908215157121827 0  -0.03 0.1 0  -0.09 0.1 0  0.03 0.1 0  0.094941534914361 0.0689649209486166 0  -0.045 0.07602120282224097 0  0.0137000972673793 0.04576151173676769 0  -0.04489857536612915 0 0  -0.02795527007175781 0.03755044438085961 0  -0.06241371758055736 0.02479853554667227 0  0.06931814492325854 0.02522317739079102 0  0.0562106357694593 0.07357769546517523 0  -0.09496619178870971 0 0  0.12 0.025 0  0.095 0 0  -0.12 0.025 0  -0.12 0.07500000000000001 0  0.12 0.07500000000000001 0  0.045 0 0  -0.0228302666921874 0.07883391093803507 0  0.09815763663419913 0.04717696422689629 0  0.04642316516164364 0.05216224004895101 0  0.015 0.08426396997497916 0  0.07685335020605615 0.08199579006851358 0  -0.03212624651891543 0.05871373573766032 0  -0.06454151582324234 0.06677080404579981 0  -0.007428983740834363 0.03973215840314246 0  -0.04143162460864844 0.02103341629232999 0  -0.07788632568368571 0.05127672197436213 0  -0.09902623975019198 0.05337871787903269 0  -0.075 0.1 0  -0.1014173577311382 0.0832008292773658 0  0.105 0.1 0  0.008793975861786027 0.06520032249375621 0  -0.003877486809385651 0.08128666365361911 0  0.04056005001669608 0.08426396997497916 0  -0.07890609788649815 0.0162597993618741 0  -0.1010699031813867 0.01892186545593956 0  0.08267954418645374 0.03858457665398622 0  0.08249999999999999 0.01250797385719048 0  0.1070573481575616 0.01294265184243836 0  -0.1072273189424094 0.0375 0  0.05487128127324764 0.0148172916808382 0  -0.07306292723448589 0.08234923187849305 0  0.02604316659281994 0.02760414390118441 0  0.03422315740010771 0.01291039266157378 0  0.02953764603397802 0.05164069645856708 0  0.05711184749668567 0.0394951990120913 0  0.1048403709991175 0.08290422259947053 0  0.07836733468041428 0.06502779237175893 0  -0.015 0.1 0  0.107641636468974 0.05970823073603768 0  0.12 0.03750000000000001 0  -0.07203199631147464 0.0369378911801824 0  -0.05383214135241159 0.01227496304049853 0  -0.12 0.0625 0  -0.105 0.1 0  0.075 0.1 0  0.015 0.1 0  -0.045 0.1 0  0.045 0.1 0  -0.10518488525811 0.06789183644845204 0  -0.04335959578005873 0.03636269925572742 0  -0.05884641539443965 0.08000585119468683 0  -0.02074261661302542 0.04996461834162433 0  -0.02653136512200803 0.0222624586885067 0  -0.08714978711530966 0.08578346506967012 0  -0.03506452979410112 0.08648708658184591 0  -0.04620947545617006 0.0616799095273325 0  0.0006562636529589983 0.05143519384945657 0  0.1057204605480501 0.03475816363918364 0  0.09074280792825767 0.08565566471894244 0  0.005667439598789157 0.03387418246945268 0  -0.03238167126048401 0 0  0.0383080886578613 0.04129238651963005 0  0.08505369180647195 0.05254495235246789 0  -0.1074830958943549 0 0  -0.12 0.0125 0  0.05414542183412842 0.08735675763730583 0  0.04308500944676981 0.07115822817126308 0  0.0649349230807125 0.06320229510900416 0  -0.05637247339858926 0.03632415216907382 0  -0.01542434356580282 0.02929607297537314 0  0.02778002500834804 0.08142901444438948 0  -0.06542774243586742 0.04799884169932159 0  -0.06661544991358234 0.0127173865239021 0  0.08192808295131557 0.02597463862592918 0  0.07006960615839669 0.03783311541884806 0  0.06988230421815755 0.01261762329223161 0  -0.12 0.08750000000000001 0  -0.08244928768306457 0 0  -0.05741547947177429 0 0  -0.03984291085584598 0.04859364585838993 0  0.08249999999999999 0 0  0.12 0.0625 0  -0.12 0.03750000000000001 0  0.12 0.0125 0  0.0325 0 0  0.0575 0 0  0.1075 0 0  0.12 0.08750000000000001 0  0.02042070411167864 0.06034025931465875 0  0.05702213417260474 0.02706267745085339 0  0.0675 0.09013045458016318 0  0.09478643990600856 0.0122865785926504 0  -0.04904630236735645 0.08801060141112049 0  0.02613192868361687 0.0398635327923046 0  -0.09569137037305205 0.04159910065917647 0  0.05140611894455763 0.0628291923813368 0  0.1085809652542695 0.07158881227331852 0  0.05796589338150855 0.05105903259253412 0  0.03841143349411784 0.06054564265388553 0  -0.02947166435407259 0.01113520957350828 0  -0.1102478054683027 0.05625 0  -0.09068017366517905 0.01182794374687028 0  -0.01434600857542353 0.08772663538203848 0  -0.03362945317777148 0.07517582904977035 0  -0.01235387050651601 0.0723330924144738 0  -0.02307888867457602 0.06674121501662693 0  -0.002185408069912574 0.06756456274836646 0  0.0678638500046832 0.07452078468888843 0  0.08597040057425252 0.07558162872540394 0  0.09674588960513322 0.05809991882890109 0  0.1094709655577269 0.04555436451412986 0  0.09473770132491341 0.03658207429318428 0  -0.06454868296360231 0.08970720561340952 0  0.1088432154030167 0.02400081163981114 0  -0.07748216799376378 0.02726807518039781 0  0.0075 0.09213198498748959 0  0.01849963805527029 0.07258270415679953 0  0.0225 0.09213198498748959 0  -0.07477959581424944 0.07129038985899076 0  -0.05389685222033951 0.06954987308797576 0  -0.05952130701477828 0.05712689877479761 0  -0.09084078800149091 0.02274804774342801 0  -0.09837161430440977 0.03085986409994825 0  -0.05131093786741553 0.0263250162658456 0  0.01635618606258252 0.03530907600454269 0  -0.03460613037873773 0.02922068783924693 0  -0.04043226315035484 0.01006625299372829 0  0.08175024910257063 0.09159737271826002 0  -0.09494035380298299 0.06367583527464522 0  -0.0886934906578859 0.04994210372431981 0  -0.02490130542947547 0.09038352188878838 0  0.04417108737523257 0.01793664269923905 0  -0.003940932065510782 0.02996170313966536 0  -0.01783357510351885 0.03997209276407525 0  -0.009556322084365085 0.04984630266759408 0  -0.09566755421412014 0.074271403467777 0  0.0355203970594753 0.02354533265972011 0  0.006555555071563847 0.07647100871020274 0  -0.07937685857812513 0.06175606142440594 0  -0.082228823034201 0.04201720146426499 0  -0.06983948840172999 0.05776693996935201 0  -0.09555085505908593 0.09149315155487603 0  -0.1098516392886323 0.0771584086134595 0  0.0975 0.1 0  0.01159727503865655 0.05556931308228881 0  -0.1115659278883601 0.01875 0  -0.1012246438415323 0.008426566493923617 0  0.01474516449273796 0.0255393740673827 0  0.08779480154260712 0.06219573447921576 0  -0.1125 0.1 0  -0.109677715301956 0.0898066291811736 0  0.1125 0.1 0  -0.1076436806656361 0.02771938223489072 0  -0.1109003748179492 0.009075404417277109 0  -0.03013785075543634 0.04712089514258909 0  -0.004952464847218618 0.0912677883600678 0  -0.1065795284902037 0.04722264329381553 0  0.04842831953664987 0.07898377417315099 0  0.03252098192319938 0.09028046125939154 0  0.02476218534733019 0.01628634550873906 0  0.04791904264346727 0.04258131505029045 0  0.06144185941573184 0.08140605316446399 0  0.1108170457022867 0.09049022742137205 0  -0.08249999999999999 0.1 0  -0.07849279483093181 0.09068500987040669 0  0.09901040145429967 0.0905247702494426 0  -0.07619083563024201 0.007152163970009891 0  -0.03784209605914159 0.06649148111429766 0  0.03557615988040569 0.07650767001919569 0  0.03302905362294855 0.03368357951329398 0  0.001528049998133968 0.0421884697145129 0  -0.06677219502603519 0.0755735126223121 0  -0.07078299185927128 0.02093806600642789 0  0.07624698700554428 0.01898789084580359 0  0.0425071772133816 0.008872273040118464 0  0.06222675218673776 0.01983691994242202 0  0.05125 0.006533019494560529 0  -0.08112674022156063 0.07793832028046994 0  0.0894563302875119 0.04461415956113914 0  0.07600555403016987 0.04440122631805228 0  0.1011730931788228 0.01956623203424818 0  0.08875791189114002 0.01876216216110217 0  0.07625 0.006253986928595243 0  0.10125 0.00625378014893175 0  0.06159289116562519 0.008367939956509781 0  0.1133219866490167 0.006678013350983326 0  0.12 0.03125 0  0.08875 0 0  0.09447377394606553 0.07772073910541109 0  0.1125347363168419 0.07917181005820358 0  -0.0360489221788708 0.04088174671649498 0  0.07238835401788725 0.0586903785336876 0  0.07770534388963661 0.0735202678075017 0  -0.02352204721963873 0.05812853133009549 0  0.02771469012026706 0.007208889738796465 0  0.06289457418076626 0.0332368862735679 0  0.02997504279709136 0.060078672135782 0  0.0379740367310045 0.0521076669766706 0  0.02209772318747019 0.04741115745969623 0  -0.0375 0.1 0  -0.04152152214341864 0.09214855581173653 0  0.07670804270236463 0.03261307516989712 0  0.08846339346732941 0.03112076208171376 0  0.06426407185079112 0.0439136177978413 0  0.05037140838704721 0.03465168226171754 0  -0.1136136594712047 0.0428084044537857 0  -0.113526383098718 0.06949936267301912 0  -0.002312773411525084 0.05922711625796673 0  0.04612867834591947 0.09118715625326625 0  0.0525 0.1 0  -0.0525 0.1 0  -0.05642436013397981 0.09226832717651308 0  0.12 0.01875 0  0.0375 0.1 0  -0.1021974954105155 0.06059626541185022 0  0.04989633308677061 0.02348577305550612 0  -0.12 0.03125 0  0.003928287502683688 0.08448841352572942 0  0.1030125400079595 0.05335714910633224 0  0.1025673057510353 0.0660868
[...]
<PointData  Scalars="f_29"> 
<DataArray  type="Float64"  Name="f_29"  format="ascii">1.0000548617384203e+01  1.0009082429731826e+01  5.0000000000000000e+01  4.9999999999999993e+01  5.0000000000000000e+01  5.0000000000000000e+01  5.0000000000000000e+01  5.0000000000000000e+01  5.0000000000000000e+01  5.0000000000000000e+01  5.0000000000000000e+01  5.0000000000000000e+01  5.0000000000000000e+01  5.0000000000000000e+01  5.0000000000000000e+01  5.0000000000000000e+01  5.0000000000000000e+01  1.0009153025156955e+01  1.0000546869150686e+01  1.0061526805648754e+01  1.0012561489212041e+01  1.0012538316756585e+01  1.0003478246194851e+01  1.0519155297482595e+01  1.0003497498560042e+01  1.0521440103162030e+01  1.0117425422753502e+01  1.0444381271579495e+01  1.0332770680449327e+01  1.1190845867041290e+01  1.0011128166182790e+01  1.0059766223449644e+01  1.0002259164963096e+01  1.0038076957640774e+01  1.2490797024300585e+01  1.0040380331176531e+01  1.0002256199776587e+01  1.0040414058160229e+01  1.0006030651649937e+01  1.0094425532485072e+01  1.3960564658827584e+01  1.5107250924831982e+01  1.4302833665468224e+01  1.0675835256013144e+01  1.0364583374683436e+01  1.0063020148289427e+01  1.0050167541228188e+01  1.0007113899248495e+01  1.0050178401734845e+01  1.0007094467472379e+01  1.0001198918917909e+01  1.0001195616959928e+01  1.5064738701042696e+01  1.0170774459905271e+01  1.0013348530280263e+01  1.0527399288192511e+01  1.0126427313704337e+01  1.0010024020984629e+01  1.0687523265850059e+01  1.0060799125127136e+01  1.7570780868663309e+01  1.4429952765626657e+01  1.0058458668946082e+01  1.0009593133791656e+01  1.0005599973712815e+01  1.0001802297549963e+01  1.0000900350773181e+01  1.0769785327827533e+01  1.0184729688792595e+01  1.0060187112795544e+01  1.0193314348566645e+01  1.0024085323618534e+01  1.0070410132679589e+01  1.0148156108616787e+01  1.0015876611810148e+01  1.0009201540793748e+01  1.1741693805519112e+01  1.0012537817056550e+01  1.9371333653380837e+01  2.0556782802782966e+01  1.1365376347044075e+01  1.0547360989249858e+01  1.0001470217932658e+01  1.0025961049633295e+01  1.0054806804077311e+01  1.0003795295249251e+01  1.0005254313055485e+01  1.0186103166096530e+01  1.2026811128391531e+01  1.0002104467392863e+01  1.0000898864028928e+01  1.0005592677878203e+01  1.0055193481590726e+01  1.0024340369341028e+01  1.0024373749657979e+01  1.0003042261569332e+01  1.1780347361340676e+01  1.0033997010355781e+01  1.2239319999671796e+01  2.2395015789272485e+01  1.0004156346620128e+01  1.0063000912235090e+01  1.0268052483119446e+01  1.2839644758742681e+01  1.0011230210001960e+01  1.0003267403921006e+01  2.2752829599896852e+01  2.5023862183584313e+01  1.1828485747216479e+01  1.0030789758490695e+01  1.0016537129282600e+01  1.0008516910531615e+01  1.0026357683429035e+01  1.0152322513481773e+01  1.0075034927042566e+01  1.0682249555704963e+01  2.4107720183897136e+01  1.0119137761936170e+01  1.0182573490278294e+01  1.0635113762609693e+01  1.0116178095851719e+01  1.0211070225398604e+01  1.0472949602702116e+01  1.0000703401820834e+01  1.0162162100247651e+01  1.1655862647520365e+01  1.1008464297974790e+01  1.0162220907951653e+01  1.0002100908399097e+01  1.0005273116774495e+01  1.0008591588941679e+01  2.4927662063452548e+01  1.1646402347645912e+01  1.0016453355421429e+01  1.0000702075625515e+01  1.0926574204678808e+01  1.0981103313169442e+01  1.0011155955873818e+01  1.0047211451968929e+01  1.0032278042700845e+01  1.4007392034456080e+01  1.0020570448550279e+01  1.0182675931765642e+01  1.0002027999323403e+01  1.0264327974826047e+01  1.0443240785920096e+01  2.6151875589040070e+01  1.0003748218117366e+01  1.0069671555742708e+01  1.0096723931959493e+01  1.0165669843357163e+01  1.0381488868075946e+01  1.0491293343239944e+01  1.0648257981644932e+01  1.0029100359854436e+01  1.0007961888362248e+01  1.0009184927246057e+01  1.0005994764103724e+01  1.0026693004254293e+01  1.0013423358674428e+01  1.0011568762745386e+01  1.0166634630406667e+01  1.0077233324493475e+01  1.0330332575104951e+01  1.0061916349806733e+01  1.0022752059579700e+01  1.0096675892982763e+01  1.0161745952277709e+01  1.0056302958498112e+01  1.0023276261655372e+01  1.1609410524931764e+01  1.8615234179839810e+01  1.4937538821862615e+01  1.6767390451525980e+01  1.0004486102025917e+01  1.0007998469575423e+01  1.0026144118623590e+01  1.0065023660697022e+01  1.3991502924799281e+01  2.8024117240435682e+01  1.5644772423122234e+01  1.3035436574294712e+01  1.0004297217432267e+01  1.6265874492230857e+01  1.0278920736859897e+01  1.0029408835266993e+01  1.0063706572092503e+01  1.0074880613937216e+01  1.0001863961788271e+01  1.0001449260182406e+01  1.0001410230345638e+01  1.1757324699854225e+01  1.0010521695376909e+01  1.0027304036004546e+01  2.9122573134889809e+01  1.0015054629476809e+01  1.0000630900461132e+01  1.0000848854724346e+01  1.0000630871617725e+01  1.0011645678904495e+01  1.0012355355884061e+01  1.1894165532845264e+01  1.0082778984587568e+01  1.0006880037493966e+01  1.0063806199698785e+01  1.0052988100940183e+01  2.8870939466848853e+01  1.0895646591443386e+01  1.0026712900026698e+01  1.0000790985991550e+01  1.0003598561215666e+01  1.0005709427687066e+01  1.0001543066541243e+01  1.0282304228334985e+01  1.0283689142527143e+01  1.0136728657621088e+01  1.4171565134300817e+01  1.6448010287034080e+01  1.0028904635472065e+01  1.0364066094011967e+01  1.0232846666149973e+01  1.5816651919661977e+01  1.0799117755478578e+01  1.2793865422412582e+01  1.0009752082349463e+01  1.0030831683604767e+01  1.0095645912717728e+01  1.0023721273059818e+01  1.0074780724492603e+01  1.0283309985367699e+01  1.0027658916600664e+01  1.1072896691635014e+01  1.0010828223434283e+01  1.0006169541374065e+01  1.0090045108239956e+01  1.0003849709354041e+01  1.0001157912514213e+01  1.2156025253313368e+01  1.0059119584229693e+01  1.0016125912126565e+01  1.1019438256959223e+01  3.0526479934146355e+01  1.0466168586121539e+01  1.0676768008931200e+01  1.0862955381736569e+01  1.2633328912211594e+01  1.0032024493982403e+01  1.0034798082517707e+01  1.0149229557217883e+01  1.0055783990838510e+01  1.0249921696021449e+01  1.1172584136636608e+01  1.0005237949782849e+01  1.0001765596110710e+01  1.1397245604761061e+01  1.0030329547870961e+01  1.0017822222669679e+01  1.0017752084901330e+01  1.0018051461482651e+01  1.0007905755494347e+01  1.0032184203781393e+01  1.0005367445944080e+01  1.2036061044935309e+01  1.0006189783321393e+01  1.0139775362778213e+01  1.0007000758740864e+01  1.0003984561337541e+01  1.0002719157348336e+01  1.0931016250172863e+01  1.1208684990373184e+01  1.0015701320681769e+01  1.0313588394118684e+01  1.0058989583398242e+01  1.9106695322081539e+01  1.0187868818180647e+01  1.0107255655054391e+01  1.0108487352918086e+01  1.0318012631588445e+01  1.2914371244011759e+01  1.0928096844360406e+01  1.0015807127701809e+01  1.0002975179912509e+01  1.8964056847793465e+01  1.0142290075615698e+01  1.3591137225730218e+01  1.1039989153769378e+01  1.3774658888451457e+01  1.0014214224926185e+01  1.0003767495409514e+01  1.0048356033979081e+01  1.0072635510106888e+01  1.0048392666963981e+01  1.0059565051264883e+01  1.0008514268715782e+01  1.0008521133353433e+01  1.0003580016958548e+01  1.0001414390890853e+01  1.0059739172125004e+01  1.0005572362408886e+01  1.0003327495963546e+01  3.1213235527183912e+01  3.2109846816852972e+01  1.0496264559887701e+01  1.0407535623614610e+01  1.0006878158224467e+01  1.0007830065686919e+01  1.0415571225940324e+01  1.0001589986533782e+01  1.0002193688403253e+01  1.0000587688746640e+01  1.0484052452376840e+01  1.0608834947630458e+01  1.0021187787564731e+01  1.0010949857741229e+01  1.0002925583138044e+01  1.0000918908455413e+01  1.0002368514605969e+01  1.0029051935479396e+01  1.0046657261027624e+01  1.0097152125088302e+01  1.0088309902775606e+01  1.0089921227980215e+01  1.0062065952590526e+01  1.0040670766970582e+01  1.0169522902071829e+01  1.1628668934285749e+01  1.0005569749835910e+01  1.0002224330060843e+01  1.1799994684657184e+01  3.2741904299842155e+01  1.6898361922831420e+01  1.0007628634756703e+01  1.0018855453237155e+01  1.1766204368507520e+01  1.3339333062622579e+01  1.0001249407993772e+01  1.3181094026352904e+01  1.0007248451759724e+01  1.0052077953015610e+01  1.0010016817361047e+01  1.0029423150256513e+01  1.0018311582375992e+01  1.0036840884530323e+01  1.0861366655326451e+01  1.0091279211714369e+01  1.0250373202818558e+01  3.3316542371326925e+01  1.0129337715128351e+01  1.0144011455967963e+01  1.0088787807681385e+01  1.0014973425056191e+01  1.0017332770809229e+01  1.0335622983181381e+01  1.0060333570455311e+01  1.1672946699237315e+01  1.0004194474554497e+01  1.0002460931242933e+01  1.0040273514756466e+01  1.0110923350551463e+01  3.4035902755370522e+01  1.0098109598933686e+01  1.0002204517997304e+01  1.2106593965186768e+01  1.0982682639617552e+01  1.0056562891642114e+01  1.0013377280915739e+01  1.0267063160569899e+01  1.0278203481817298e+01  1.4420668145622164e+01  1.0039781453876470e+01  1.0051037677249012e+01  1.3197286348620329e+01  1.4788418910447279e+01  2.1186983518626352e+01  1.8739060087945717e+01  2.0445744146888686e+01  1.0518722919746622e+01  1.0116650233363348e+01  1.0227652642871272e+01  1.0067101838386812e+01  1.1776597919285280e+01  1.0005368992331844e+01  1.0040177290202118e+01  1.0000586189639760e+01  1.0242932067202906e+01  1.9560626330107443e+01  1.0485166375417055e+01  1.0527609776976846e+01  1.0232362005709341e+01  1.0166132593341761e+01  1.0085917955472292e+01  1.0093711173087124e+01  1.0099909894190853e+01  3.5055606044328037e+01  1.0007535464073969e+01  1.1012483199708234e+01  1.0030355344546777e+01  2.0915283203258671e+01  2.1928689110678295e+01  1.4742959398861363e+01  1.0098427603883088e+01  1.0258380017972405e+01  1.0010780507310807e+01  1.0008976120149219e+01  1.1446468920588149e+01  1.0897924667720707e+01  2.4028834994288690e+01  1.1634441135960691e+01  1.0346740410396121e+01  1.0019100461870918e+01  1.0049659923724823e+01  1.0052554783503602e+01  1.0027751337898502e+01  1.0023232707033564e+01  1.0008449149844918e+01  1.0266639188073405e+01  1.0203154305041217e+01  1.2166755352589153e+01  1.0265337725569331e+01  1.0471374681526342e+01  1.0508637571021739e+01  1.1049348756547969e+01  1.0563761538421488e+01  1.0978666402331680e+01  1.1144768644530750e+01  1.0065887828396168e+01  1.0037635560678567e+01  1.0235805256822688e+01  1.0422286437120380e+01  1.8839474621722399e+01  1.0028240853090360e+01  1.0291982629575163e+01  1.2924146721253306e+01  1.0132089713579244e+01  1.0001600796309615e+01  3.4824150627055431e+01  1.0009025407596079e+01  1.0007866773866777e+01  1.0000899775855435e+01  1.0010873169939210e+01  1.0926944397228882e+01  1.0290863961296596e+01  1.2901177822180584e+01  1.0004326094685783e+01  1.0002746617441808e+01  1.0028307794745633e+01  1.0000905613196053e+01  1.0004329726312347e+01  1.0095341585776199e+01  1.0089050086865832e+01  1.0041826431808655e+01  1.0771639362625908e+01  1.1380025465264950e+01  1.0581574005930806e+01  1.0040491138536614e+01  1.0158297152502604e+01  1.0007445069675375e+01  1.0584645840222047e+01  2.1373550099166213e+01  1.0066884623377765e+01  1.0293883906907341e+01  1.0237697713268954e+01  1.0674362308403095e+01  1.0122896505575850e+01  1.0105614163019030e+01  1.0026754185867315e+01  1.0051349775455941e+01  1.0001251217499810e+01  1.5980962676676841e+01  1.0011806279933685e+01  1.0015843170887383e+01  1.0020159813513432e+01  1.0958976879902348e+01  1.0041851428742348e+01  1.0395614180246881e+01  1.0002779751131968e+01  1.3874583924364696e+01  1.0501145124683983e+01  1.0016404978645907e+01  1.0165993499370339e+01  1.2741932711955359e+01  1.0159120636127414e+01  1.0001699865573780e+01  1.0001510611085310e+01  1.0014436639984263e+01  1.0167353632321534e+01  1.2261741018891742e+01  1.0091774643268616e+01  1.0125674416716967e+01  1.0001126287014429e+01  1.0003012392707666e+01  1.0152634938650399e+01  1.3621466722022078e+01  1.0013538378644277e+01  1.0010443022736183e+01  1.0015361740077546e+01  1.0017106189293527e+01  1.0013970305911633e+01  1.0018929685783116e+01  3.5477471008125612e+01  3.5307902919813060e+01  1.0183802069652517e+01  1.0403750901414254e+01  1.0188509295613551e+01  1.0360765214564582e+01  1.0007571243593894e+01  1.0006084644970056e+01  1.0042557796480535e+01  1.0038044532085710e+01  1.0022805374776850e+01  1.1056942407573050e+01  1.0133496742287669e+01  1.0003689728578886e+01  1.0000999365201819e+01  1.0004181134220513e+01  1.0008335028592045e+01  1.6428661313562490e+01  1.0292239817971188e+01  1.0158653188858175e+01  1.0119080528957038e+01  1.0617289660808588e+01  2.5149654705013287e+01  1.0827895795595357e+01  1.0011089435034810e+01  1.0011044496199155e+01  1.2627921126338927e+01  1.0000770125753405e+01  1.0000628193133666e+01  1.0001162891667697e+01  1.0014566439174621e+01  1.0018807893922329e+01  1.0014446049033335e+01  1.0037229992678999e+01  1.1407816215203542e+01  1.0007738009767717e+01  1.0000764579618361e+01  1.0008498551402878e+01  1.0005174638626121e+01  1.0006348953784119e+01  1.6632611792287097e+01  1.3189738236268219e+01  1.0016408675322660e+01  1.0021483580351235e+01  1.0033732112358148e+01  1.0181677604805587e+01  1.0009573056232094e+01  1.0053344509300389e+01  1.0005416173448479e+01  1.5968825166175433e+01  1.0003544527905010e+01  1.6022712704902553e+01  1.0009875951996317e+01  1.0087918672701376e+01  2.4398562706190273e+01  1.1133032678625900e+01  1.0021107715102485e+01  1.0217519621610119e+01  1.0006600586096210e+01  1.0005493072912694e+01  1.2855777771467640e+01  2.0019464392333660e+01  1.5599323791240456e+01  1.6546469777100608e+01  1.0001163444987881e+01  1.0011150700642073e+01  1.0655154657622280e+01  1.0034492592801753e+01  1.0103655160233826e+01  1.0020705960053379e+01  1.0001111511647640e+01  1.0037950079647910e+01  1.2520258233182554e+01  1.0045667350759281e+01  1.0047779336869697e+01  1.2961339945000196e+01  1.0103173247201401e+01  1.0022154085861660e+01  1.0133747777638698e+01  1.0091354171676915e+01  1.0099042049423865e+01  1.0067038579094326e+01  1.0055917779571740e+01  1.0048235979516994e+01  1.0062297660489612e+01  1.2924317356270750e+01  1.1369483496597935e+01  1.6202161490529658e+01  1.0003654937916084e+01  1.0319799181452959e+01  1.0218698786825586e+01  1.0008668040986432e+01  1.0387664215367673e+01  2.5085511362182054e+01  1.0010868029501177e+01  1.0029852784152496e+01  1.7865871465380398e+01  1.1364793300967690e+01  1.0006722396329812e+01  1.0005882282034401e+01  1.0002831797360551e+01  1.0017855865167169e+01  1.0025204217495187e+01  1.0042214074070387e+01  1.0000727555997161e+01  1.0008594544559374e+01  1.0455189210557959e+01  1.0076266566899676e+01  1.1713380361863379e+01  1.0105158198916948e+01  1.0009654888054426e+01  1.0040365451820263e+01  1.0021205039043949e+01  1.0118963738660943e+01  1.0002268210235997e+01  1.0306241746104508e+01  1.0004787684396801e+01  1.6061514616622208e+01  1.0631765323693104e+01  1.3591558121848786e+01  1.0009802169803368e+01  1.0002128691885259e+01  2.1787357645329738e+01  1.0002750043569840e+01  1.1910726909124950e+01  2.3691353480651554e+01  3.7204340797308390e+01  1.6430978529857118e+01  1.0016898780567919e+01  1.0064311633413000e+01  1.0005450930311131e+01  1.0030768223372915e+01  1.0205009329371848e+01  1.0002748902917160e+01  1.0001827959170550e+01  1.0001788199156627e+01  1.0002121829171482e+01  1.0260052353955752e+01  1.0151604908725306e+01  1.0000877141399437e+01  1.0004216735078607e+01  1.0567871581701182e+01  2.6736382228227509e+01  1.6929468905093216e+01  2.2894172022110755e+01  1.0007071444349164e+01  1.0088135834374826e+01  3.7918840753664675e+01  3.6766233146780891e+01  1.2648639673762496e+01  1.0061069616607549e+01  1.1219723732933305e+01  1.2676958122735584e+01  1.0006492091114195e+01  1.0105906618380679e+01  1.0008413184168660e+01  1.0004986800556157e+01  3.7416933971101479e+01  1.0024327584805643e+01  1.0006323091923452e+01  1.0009315583701618e+01  1.0006339467698167e+01  1.1016960278257065e+01  1.0043543476623130e+01  1.0019555531247532e+01  1.9953269982196677e+01  1.2891624220264868e+01  1.1566860367506271e+01  1.0047554246823976e+01  1.0735351535448485e+01  1.0005691526288070e+01  1.0730804154004309e+01  1.0258678389129150e+01  1.0000568501334683e+01  1.0000624443641930e+01  1.0281303420840702e+01  1.0065168685281224e+01  1.0002798202353988e+01  1.0024448216356939e+01  1.0469187044404411e+01  1.0012943589589964e+01  1.0017853455444024e+01  1.1297855664603437e+01  1.1288838923653508e+01  1.0191820977498123e+01  1.0010479517329999e+01  1.0000728655886757e+01  1.0010002132566498e+01  1.0266080213073280e+01  1.0001593201875087e+01  1.7325938232659453e+01  3.6912182227967911e+01  1.0047895003830563e+01  1.0002219505522522e+01  2.7941897152300953e+01  1.0057369876322110e+01  1.4199926114601135e+01  3.8224688937030770e+01  1.1060114653383931e+01  1.9170714261734382e+01  1.0003255157938217e+01  1.0016708369299653e+01  1.0648696564416110e+01  1.0002594054515180e+01  1.0233564244208234e+01  1.0693073905290305e+01  1.0098245874266128e+01  1.0060159520968661e+01  1.0061600459586074e+01  1.0024138916205040e+01  1.0040841009601033e+01  1.1553760304638377e+01  1.0388822002119602e+01  1.0022547543838050e+01  1.2213507373112634e+01  2.5794174241171955e+01  1.0285401309998511e+01  3.9686567794988790e+01  1.0131160376756302e+01  1.0855721644493407e+01  1.0285213307154988e+01  1.0689071299841663e+01  1.0821825631015956e+01  1.0695620580076799e+01  1.2215672347528098e+01  1.0070875374866507e+01  1.9219460573598038e+01  1.6689861734135647e+01  1.0094004522287660e+01  1.0001908112150049e+01  1.0004448544498203e+01  1.0078356305842027e+01  1.0045830707050008e+01  1.0128479231313136e+01  1.0090267971421072e+01  1.0143471821825383e+01  1.0266911918074838e+01  1.0447024380830964e+01  1.0455323891035761e+01  1.4445907971680487e+01  1.0008789425851823e+01  1.0012323607444301e+01  1.1720077854342614e+01  1.0071248216226145e+01  1.1250321965895322e+01  1.0086624718838936e+01  1.0004161036822348e+01  1.0782828640081771e+01  1.0393469786796661e+01  1.0206907979351987e+01  1.0036846772337151e+01  1.4797444389125596e+01  1.0061112057204681e+01  1.1293694078707439e+01  1.4695931389704663e+01  1.0065929008698033e+01  1.0050640866670017e+01  1.0034268123656805e+01  1.0042171381054679e+01  1.5041391938685365e+01  1.0019899309212374e+01  1.0033174008404428e+01  1.0047102075874065e+01  1.2708495209144864e+01  2.7602930202888828e+01  1.0006992852031102e+01  1.8738791224386560e+01  1.0064390063167515e+01  1.0070300221990912e+01  1.0040155244042657e+01  1.0333691344489743e+01  1.0171627933937682e+01  1.0058808942545440e+01  1.0140576433035742e+01  1.2308733183543936e+01  1.0007849356858843e+01  1.0079492883358379e+01  1.0042068889868199e+01  1.0088422486111821e+01  1.0019334475899250e+01  1.1220941654681800e+01  1.1251931914629090e+01  1.0093384073843783e+01  1.0920178712570975e+01  1.0552172620957910e+01  1.0076615385156073e+01  1.0001143267377314e+01  1.0025995908559649e+01  1.0042468318858889e+01  1.0690003494641902e+01  1.0016947282064773e+01  1.0013138905352221e+01  1.0112080730962584e+01  1.0020561856142518e+01  1.0091370188797681e+01  1.0075422665749896e+01  1.2416614477837273e+01  1.0187536259640654e+01  1.0057648854072555e+01  1.0012956371901950e+01  1.0387879231420987e+01  1.0370000583690642e+01  1.0215073802014185e+01  1.0205867079075043e+01  1.0037924199587925e+01  1.0036857869603605e+01  1.0076004095023881e+01  1.0009614681286234e+01  1.0737637343098770e+01  1.0367086423977652e+01  1.0274650252126005e+01  1.0028197366567371e+01  1.0001438527324881e+01  1.4157644442164605e+01  1.0004096132451920e+01  1.9431323118930028e+01  1.0004520050961336e+01  1.0003696432697657e+01  1.0286316261609436e+01  1.0015036807829890e+01  1.3045955224178217e+01  1.0001555736419057e+01  1.1528060098673858e+01  1.0001535266256111e+01  1.0090022345225542e+01  1.1741364584653262e+01  1.0053035118503997e+01  1.0009744112522993e+01  1.0167195788723758e+01  1.0017749991352389e+01  1.0011975014764765e