<?xml version="1.0"?>
<VTKFile type="UnstructuredGrid"  version="0.1"  >
<UnstructuredGrid>
<Piece  NumberOfPoints="2743" NumberOfCells="5270">
<Points>
<DataArray  type="Float64"  NumberOfComponents="3"  format="ascii">-0.12 0.1 0  -0.12 0 0  -0.01986476715483886 0 0  -0.01986476715483886 0.002321858282504599 0  -0.01879385241571817 0.006840402866513377 0  -0.01670975622825873 0.01099017956141612 0  -0.01372483275737467 0.01454747283146098 0  -0.009999999999999995 0.01732050807568877 0  -0.005736064654221804 0.01915979024630978 0  -0.001162896578209515 0.01996616316542536 0  0.003472963553338608 0.01969615506024416 0  0.007921595320783138 0.01836432213760548 0  0.01194317183405572 0.01604246385510088 0  0.01532088886237956 0.01285575219373078 0  0.01787265280646825 0.008975983604009244 0  0.01946089741159648 0.004612317414848803 0  0.02 0 0  0.12 0 0  0.12 0.1 0  0 0.1 0  0.06 0.1 0  -0.06 0.1 0  0.12 0.05 0  0.06999999999999999 0 0  -0.12 0.05 0  -0.06993238357741943 0 0  0.06954545454545454 0.05045454545454546 0  -0.05256818197129183 0.04876858210896794 0  0.03 0.06852793994995832 0  -0.01060230953534651 0.06012868531377026 0  -0.08590602075287224 0.07008722490344668 0  -0.08700383268980955 0.03297312682365156 0  0.09 0.1 0  0.09454951298701297 0.02545048701298702 0  0.04421726329698947 0.02908215157121827 0  -0.03 0.1 0  -0.09 0.1 0  0.03 0.1 0  0.094941534914361 0.0689649209486166 0  -0.045 0.07602120282224097 0  0.0137000972673793 0.04576151173676769 0  -0.04489857536612915 0 0  -0.02795527007175781 0.03755044438085961 0  -0.06241371758055736 0.02479853554667227 0  0.06931814492325854 0.02522317739079102 0  0.0562106357694593 0.07357769546517523 0  -0.09496619178870971 0 0  0.12 0.025 0  0.095 0 0  -0.12 0.025 0  -0.12 0.07500000000000001 0  0.12 0.07500000000000001 0  0.045 0 0  -0.0228302666921874 0.07883391093803507 0  0.09815763663419913 0.04717696422689629 0  0.04642316516164364 0.05216224004895101 0  0.015 0.08426396997497916 0  0.07685335020605615 0.08199579006851358 0  -0.03212624651891543 0.05871373573766032 0  -0.06454151582324234 0.06677080404579981 0  -0.007428983740834363 0.03973215840314246 0  -0.04143162460864844 0.02103341629232999 0  -0.07788632568368571 0.05127672197436213 0  -0.09902623975019198 0.05337871787903269 0  -0.075 0.1 0  -0.1014173577311382 0.0832008292773658 0  0.105 0.1 0  0.008793975861786027 0.06520032249375621 0  -0.003877486809385651 0.08128666365361911 0  0.04056005001669608 0.08426396997497916 0  -0.07890609788649815 0.0162597993618741 0  -0.1010699031813867 0.01892186545593956 0  0.08267954418645374 0.03858457665398622 0  0.08249999999999999 0.01250797385719048 0  0.1070573481575616 0.01294265184243836 0  -0.1072273189424094 0.0375 0  0.05487128127324764 0.0148172916808382 0  -0.07306292723448589 0.08234923187849305 0  0.02604316659281994 0.02760414390118441 0  0.03422315740010771 0.01291039266157378 0  0.02953764603397802 0.05164069645856708 0  0.05711184749668567 0.0394951990120913 0  0.1048403709991175 0.08290422259947053 0  0.07836733468041428 0.06502779237175893 0  -0.015 0.1 0  0.107641636468974 0.05970823073603768 0  0.12 0.03750000000000001 0  -0.07203199631147464 0.0369378911801824 0  -0.05383214135241159 0.01227496304049853 0  -0.12 0.0625 0  -0.105 0.1 0  0.075 0.1 0  0.015 0.1 0  -0.045 0.1 0  0.045 0.1 0  -0.10518488525811 0.06789183644845204 0  -0.04335959578005873 0.03636269925572742 0  -0.05884641539443965 0.08000585119468683 0  -0.02074261661302542 0.04996461834162433 0  -0.02653136512200803 0.0222624586885067 0  -0.08714978711530966 0.08578346506967012 0  -0.03506452979410112 0.08648708658184591 0  -0.04620947545617006 0.0616799095273325 0  0.0006562636529589983 0.05143519384945657 0  0.1057204605480501 0.03475816363918364 0  0.09074280792825767 0.08565566471894244 0  0.005667439598789157 0.03387418246945268 0  -0.03238167126048401 0 0  0.0383080886578613 0.04129238651963005 0  0.08505369180647195 0.05254495235246789 0  -0.1074830958943549 0 0  -0.12 0.0125 0  0.05414542183412842 0.08735675763730583 0  0.04308500944676981 0.07115822817126308 0  0.0649349230807125 0.06320229510900416 0  -0.05637247339858926 0.03632415216907382 0  -0.01542434356580282 0.02929607297537314 0  0.02778002500834804 0.08142901444438948 0  -0.06542774243586742 0.04799884169932159 0  -0.06661544991358234 0.0127173865239021 0  0.08192808295131557 0.02597463862592918 0  0.07006960615839669 0.03783311541884806 0  0.06988230421815755 0.01261762329223161 0  -0.12 0.08750000000000001 0  -0.08244928768306457 0 0  -0.05741547947177429 0 0  -0.03984291085584598 0.04859364585838993 0  0.08249999999999999 0 0  0.12 0.0625 0  -0.12 0.03750000000000001 0  0.12 0.0125 0  0.0325 0 0  0.0575 0 0  0.1075 0 0  0.12 0.08750000000000001 0  0.02042070411167864 0.06034025931465875 0  0.05702213417260474 0.02706267745085339 0  0.0675 0.09013045458016318 0  0.09478643990600856 0.0122865785926504 0  -0.04904630236735645 0.08801060141112049 0  0.02613192868361687 0.0398635327923046 0  -0.09569137037305205 0.04159910065917647 0  0.05140611894455763 0.0628291923813368 0  0.1085809652542695 0.07158881227331852 0  0.05796589338150855 0.05105903259253412 0  0.03841143349411784 0.06054564265388553 0  -0.02947166435407259 0.01113520957350828 0  -0.1102478054683027 0.05625 0  -0.09068017366517905 0.01182794374687028 0  -0.01434600857542353 0.08772663538203848 0  -0.03362945317777148 0.07517582904977035 0  -0.01235387050651601 0.0723330924144738 0  -0.02307888867457602 0.06674121501662693 0  -0.002185408069912574 0.06756456274836646 0  0.0678638500046832 0.07452078468888843 0  0.08597040057425252 0.07558162872540394 0  0.09674588960513322 0.05809991882890109 0  0.1094709655577269 0.04555436451412986 0  0.09473770132491341 0.03658207429318428 0  -0.06454868296360231 0.08970720561340952 0  0.1088432154030167 0.02400081163981114 0  -0.07748216799376378 0.02726807518039781 0  0.0075 0.09213198498748959 0  0.01849963805527029 0.07258270415679953 0  0.0225 0.09213198498748959 0  -0.07477959581424944 0.07129038985899076 0  -0.05389685222033951 0.06954987308797576 0  -0.05952130701477828 0.05712689877479761 0  -0.09084078800149091 0.02274804774342801 0  -0.09837161430440977 0.03085986409994825 0  -0.05131093786741553 0.0263250162658456 0  0.01635618606258252 0.03530907600454269 0  -0.03460613037873773 0.02922068783924693 0  -0.04043226315035484 0.01006625299372829 0  0.08175024910257063 0.09159737271826002 0  -0.09494035380298299 0.06367583527464522 0  -0.0886934906578859 0.04994210372431981 0  -0.02490130542947547 0.09038352188878838 0  0.04417108737523257 0.01793664269923905 0  -0.003940932065510782 0.02996170313966536 0  -0.01783357510351885 0.03997209276407525 0  -0.009556322084365085 0.04984630266759408 0  -0.09566755421412014 0.074271403467777 0  0.0355203970594753 0.02354533265972011 0  0.006555555071563847 0.07647100871020274 0  -0.07937685857812513 0.06175606142440594 0  -0.082228823034201 0.04201720146426499 0  -0.06983948840172999 0.05776693996935201 0  -0.09555085505908593 0.09149315155487603 0  -0.1098516392886323 0.0771584086134595 0  0.0975 0.1 0  0.01159727503865655 0.05556931308228881 0  -0.1115659278883601 0.01875 0  -0.1012246438415323 0.008426566493923617 0  0.01474516449273796 0.0255393740673827 0  0.08779480154260712 0.06219573447921576 0  -0.1125 0.1 0  -0.109677715301956 0.0898066291811736 0  0.1125 0.1 0  -0.1076436806656361 0.02771938223489072 0  -0.1109003748179492 0.009075404417277109 0  -0.03013785075543634 0.04712089514258909 0  -0.004952464847218618 0.0912677883600678 0  -0.1065795284902037 0.04722264329381553 0  0.04842831953664987 0.07898377417315099 0  0.03252098192319938 0.09028046125939154 0  0.02476218534733019 0.01628634550873906 0  0.04791904264346727 0.04258131505029045 0  0.06144185941573184 0.08140605316446399 0  0.1108170457022867 0.09049022742137205 0  -0.08249999999999999 0.1 0  -0.07849279483093181 0.09068500987040669 0  0.09901040145429967 0.0905247702494426 0  -0.07619083563024201 0.007152163970009891 0  -0.03784209605914159 0.06649148111429766 0  0.03557615988040569 0.07650767001919569 0  0.03302905362294855 0.03368357951329398 0  0.001528049998133968 0.0421884697145129 0  -0.06677219502603519 0.0755735126223121 0  -0.07078299185927128 0.02093806600642789 0  0.07624698700554428 0.01898789084580359 0  0.0425071772133816 0.008872273040118464 0  0.06222675218673776 0.01983691994242202 0  0.05125 0.006533019494560529 0  -0.08112674022156063 0.07793832028046994 0  0.0894563302875119 0.04461415956113914 0  0.07600555403016987 0.04440122631805228 0  0.1011730931788228 0.01956623203424818 0  0.08875791189114002 0.01876216216110217 0  0.07625 0.006253986928595243 0  0.10125 0.00625378014893175 0  0.06159289116562519 0.008367939956509781 0  0.1133219866490167 0.006678013350983326 0  0.12 0.03125 0  0.08875 0 0  0.09447377394606553 0.07772073910541109 0  0.1125347363168419 0.07917181005820358 0  -0.0360489221788708 0.04088174671649498 0  0.07238835401788725 0.0586903785336876 0  0.07770534388963661 0.0735202678075017 0  -0.02352204721963873 0.05812853133009549 0  0.02771469012026706 0.007208889738796465 0  0.06289457418076626 0.0332368862735679 0  0.02997504279709136 0.060078672135782 0  0.0379740367310045 0.0521076669766706 0  0.02209772318747019 0.04741115745969623 0  -0.0375 0.1 0  -0.04152152214341864 0.09214855581173653 0  0.07670804270236463 0.03261307516989712 0  0.08846339346732941 0.03112076208171376 0  0.06426407185079112 0.0439136177978413 0  0.05037140838704721 0.03465168226171754 0  -0.1136136594712047 0.0428084044537857 0  -0.113526383098718 0.06949936267301912 0  -0.002312773411525084 0.05922711625796673 0  0.04612867834591947 0.09118715625326625 0  0.0525 0.1 0  -0.0525 0.1 0  -0.05642436013397981 0.09226832717651308 0  0.12 0.01875 0  0.0375 0.1 0  -0.1021974954105155 0.06059626541185022 0  0.04989633308677061 0.02348577305550612 0  -0.12 0.03125 0  0.003928287502683688 0.08448841352572942 0  0.1030125400079595 0.05335714910633224 0  0.1025673057510353 0.0660868
[...]
<PointData  Scalars="f_29"> 
<DataArray  type="Float64"  Name="f_29"  format="ascii">1.0063947594805608e+01  1.0389887111461581e+01  5.0000000000000000e+01  4.9999999999999993e+01  5.0000000000000000e+01  5.0000000000000000e+01  5.0000000000000000e+01  5.0000000000000000e+01  5.0000000000000000e+01  5.0000000000000000e+01  5.0000000000000000e+01  5.0000000000000000e+01  5.0000000000000000e+01  5.0000000000000000e+01  5.0000000000000000e+01  5.0000000000000000e+01  5.0000000000000000e+01  1.0391251398733969e+01  1.0063888327758319e+01  1.1390806569860551e+01  1.0485930339252459e+01  1.0485346775702691e+01  1.0202289167353397e+01  1.3934695264697408e+01  1.0202697100793035e+01  1.3946893828026262e+01  1.1631734284224198e+01  1.3599720848524926e+01  1.3100732387467053e+01  1.6312588965790631e+01  1.0376219344482381e+01  1.1080590418598304e+01  1.0151754251704418e+01  1.0824496119844904e+01  1.9361556440603454e+01  1.1057736977354432e+01  1.0151604314594081e+01  1.1058300468075641e+01  1.0255152442423539e+01  1.1492331033879831e+01  2.1956228982890639e+01  2.3626864582512603e+01  2.2482562285841922e+01  1.4571175739624366e+01  1.3210048294350214e+01  1.1150130039542427e+01  1.0983637308949357e+01  1.0329780149037637e+01  1.0983297403299888e+01  1.0329365330135781e+01  1.0100119949431971e+01  1.0100049426309345e+01  2.3567319774114360e+01  1.2171190583253425e+01  1.0427310415269096e+01  1.3983395873709448e+01  1.1887830921833997e+01  1.0369727710193812e+01  1.4652476940604489e+01  1.1104130755851957e+01  2.6683441402451688e+01  2.2675619702292916e+01  1.1062445174230399e+01  1.0345357000680512e+01  1.0280679176034912e+01  1.0123496459527843e+01  1.0084478765010342e+01  1.4980070763440821e+01  1.2310651796034710e+01  1.1194879389310090e+01  1.2207485079020323e+01  1.0634788002852599e+01  1.1195139102754172e+01  1.1882534619269654e+01  1.0507239537406043e+01  1.0355008012021061e+01  1.7728375391001798e+01  1.0428552546773219e+01  2.8596803373077769e+01  2.9749810969424392e+01  1.6791354617417806e+01  1.4056288933575072e+01  1.0109526641260898e+01  1.0643056373188292e+01  1.1293465131230095e+01  1.0198589630686161e+01  1.0268016886794424e+01  1.2156311362336250e+01  1.8376229823758127e+01  1.0144019322154490e+01  1.0084355522618361e+01  1.0280612700844317e+01  1.1297032767040934e+01  1.0758084364093476e+01  1.0758715454751584e+01  1.0169554717756135e+01  1.7826065285650742e+01  1.0804921841014723e+01  1.8857063417337613e+01  3.1450168424923199e+01  1.0212009552275340e+01  1.1254597449668072e+01  1.2703806652253249e+01  2.0063926292682854e+01  1.0399548689056280e+01  1.0181450633610837e+01  3.1746261770985722e+01  3.3636428662564761e+01  1.7938244465056389e+01  1.0712549918911645e+01  1.0523024764200690e+01  1.0373335124541123e+01  1.0726467293671988e+01  1.1961935517850103e+01  1.1252485366843043e+01  1.4597002961847734e+01  3.2912784767931171e+01  1.1777980888405260e+01  1.2134999091872853e+01  1.4414438645539308e+01  1.1626337944805476e+01  1.2324412266936802e+01  1.3728298843075555e+01  1.0073093663228258e+01  1.1989398216216776e+01  1.7515116316213270e+01  1.5732023436092033e+01  1.1987312400229802e+01  1.0144012022032893e+01  1.0268409123800005e+01  1.0374819713232050e+01  3.3542856422155857e+01  1.7486931682170258e+01  1.0521815659000652e+01  1.0073071850486208e+01  1.5508634845210443e+01  1.5637370887120273e+01  1.0423542098795796e+01  1.0947058014638566e+01  1.0832561985503157e+01  2.2019074645754014e+01  1.0558959975240256e+01  1.2155302286434578e+01  1.0133813543371536e+01  1.2662100459191448e+01  1.3622661400035831e+01  3.4537100668164641e+01  1.0200961158688820e+01  1.1195551295223185e+01  1.1660369301419266e+01  1.2091180239148171e+01  1.3386545320016754e+01  1.3870183279147083e+01  1.4543472181584340e+01  1.0708219707320447e+01  1.0308213851242641e+01  1.0333895049052439e+01  1.0272900416478858e+01  1.0659640560818870e+01  1.0476958505592901e+01  1.0419857738270348e+01  1.2018306311272296e+01  1.1519511007832595e+01  1.3119772634983933e+01  1.1321180631572554e+01  1.0598027858866688e+01  1.1480500724924662e+01  1.1988871690015401e+01  1.1048431584719467e+01  1.0611855992860111e+01  1.7410775189329758e+01  2.7825179501842534e+01  2.3389641021189426e+01  2.5756774793829816e+01  1.0232772538694492e+01  1.0304457547924784e+01  1.0642197127714866e+01  1.1335978831489353e+01  2.1994547406062530e+01  3.5939818779643751e+01  2.4358345842572749e+01  2.0405205349425458e+01  1.0207019778570059e+01  2.5128246642727472e+01  1.2869283537249970e+01  1.0692212844309786e+01  1.1121077928379131e+01  1.1242904264094463e+01  1.0130232650108693e+01  1.0109273762421898e+01  1.0111481112408457e+01  1.7792019300584908e+01  1.0406162798462374e+01  1.0687797002795831e+01  3.6746396859976585e+01  1.0453113349130751e+01  1.0068911659068018e+01  1.0080721300152641e+01  1.0068964402193131e+01  1.0416590515404037e+01  1.0448147004588256e+01  1.8093679639879131e+01  1.1570900644951843e+01  1.0291217536795450e+01  1.1188073291649626e+01  1.1171510762938830e+01  3.6573365915805560e+01  1.5364338681781808e+01  1.0696102142731453e+01  1.0077712639826146e+01  1.0207527599471355e+01  1.0271584022594061e+01  1.0115092632869544e+01  1.2763182941844763e+01  1.2811875824949670e+01  1.1876709541778265e+01  2.2279860882588004e+01  2.5389079592895200e+01  1.0708783729091998e+01  1.3203977636129400e+01  1.2465943094975939e+01  2.4569668931562287e+01  1.5030128320481017e+01  1.9942262916151410e+01  1.0354081770561669e+01  1.0715558683113318e+01  1.1440786201424528e+01  1.0628180353986327e+01  1.1244838629725889e+01  1.2767936395796633e+01  1.0693560031320640e+01  1.5921535344058341e+01  1.0421441250714730e+01  1.0299509156255962e+01  1.1396750818694279e+01  1.0194831148851330e+01  1.0096518695392724e+01  1.8672842675245654e+01  1.1072453066723716e+01  1.0482904811702531e+01  1.5791624699764681e+01  3.7736286107963288e+01  1.3700665476301355e+01  1.4611605114346904e+01  1.5269953907964089e+01  1.9651181910194161e+01  1.0908951997205918e+01  1.0912322691667729e+01  1.1886651324674375e+01  1.1037306635230941e+01  1.2571098892540380e+01  1.6231646292369639e+01  1.0258687822036030e+01  1.0125603645350923e+01  1.6894361875172493e+01  1.0827351052962493e+01  1.0615362501696428e+01  1.0614124430097332e+01  1.0594118642885817e+01  1.0354639426316936e+01  1.0910980955335507e+01  1.0240501997238740e+01  1.8402192587272946e+01  1.0299918732526434e+01  1.2007739962811128e+01  1.0287319991400887e+01  1.0199207348217190e+01  1.0171346973521143e+01  1.5477713258171839e+01  1.6322994224178366e+01  1.0464656158909621e+01  1.2939661470020445e+01  1.1068481499010037e+01  2.8317071225695624e+01  1.2319921188839800e+01  1.1542794786698186e+01  1.1554248886383615e+01  1.2957085705294263e+01  2.0182777286908252e+01  1.5468953209993099e+01  1.0499364724114733e+01  1.0165718624503207e+01  2.8182876979939593e+01  1.1837883272956496e+01  2.1345898264886092e+01  1.5824373295312609e+01  2.1641571592896828e+01  1.0437488905703821e+01  1.0205621679362231e+01  1.1190271826116055e+01  1.1455606046311278e+01  1.1190883916092876e+01  1.1363989591742085e+01  1.0373291902528660e+01  1.0373568590206215e+01  1.0207147618316036e+01  1.0111588948103735e+01  1.1365257591466033e+01  1.0246753471169331e+01  1.0192522912581399e+01  3.8226330615353746e+01  3.8844443288841966e+01  1.3833862475580153e+01  1.3471149405149761e+01  1.0310111895431861e+01  1.0343119205168437e+01  1.3464704450862166e+01  1.0119963433892163e+01  1.0144182828394815e+01  1.0066313734426346e+01  1.3793878449266241e+01  1.4329576305293916e+01  1.0578771466020982e+01  1.0385704869695275e+01  1.0166888968312040e+01  1.0084476863995306e+01  1.0144462860744790e+01  1.0685677837283587e+01  1.1112057864651133e+01  1.1597557072911840e+01  1.1466118047129203e+01  1.1397252078103618e+01  1.1153848336459340e+01  1.0854034513087594e+01  1.2078111144307664e+01  1.7482467240126891e+01  1.0255486849665733e+01  1.0147222832905987e+01  1.7883509533496202e+01  3.9275524568801139e+01  2.5925812447711834e+01  1.0326288746296697e+01  1.0561402297659688e+01  1.7788180204777497e+01  2.0931093325736253e+01  1.0100952691852438e+01  2.0680794195191208e+01  1.0320692821572472e+01  1.1018835714590251e+01  1.0397473348338252e+01  1.0691303770471075e+01  1.0514670542719411e+01  1.0806673417768900e+01  1.5285581348711919e+01  1.1403037613265081e+01  1.2589642220784617e+01  3.9660811830044722e+01  1.1738695296050416e+01  1.1858641292434664e+01  1.1384266729883738e+01  1.0525562097942437e+01  1.0531864314194749e+01  1.3174954831178560e+01  1.1327404266654144e+01  1.7564284296441244e+01  1.0221725938389360e+01  1.0155496794205659e+01  1.0990825343063637e+01  1.1595980287241831e+01  4.0150358679491099e+01  1.1469396383228053e+01  1.0140067428804453e+01  1.8570021823567224e+01  1.5654541767045782e+01  1.1062540678482447e+01  1.0422688097210246e+01  1.2750046379560857e+01  1.2752667460102996e+01  2.2666726807863522e+01  1.0837881516228753e+01  1.0977499522517816e+01  2.0698377946251725e+01  2.3198911858059940e+01  3.0352156042751940e+01  2.7946198217630435e+01  2.9644903270916984e+01  1.4018161619115038e+01  1.1664746805726521e+01  1.2488037025422885e+01  1.1420792716089624e+01  1.7846609110882707e+01  1.0265013531559266e+01  1.0899410692143702e+01  1.0066273393926167e+01  1.2561789322519356e+01  2.8782405130011966e+01  1.3790576618597276e+01  1.3970381841651799e+01  1.2553221210504294e+01  1.2148118518060388e+01  1.1471080596474971e+01  1.1499743444884183e+01  1.1502570295191862e+01  4.0815380214360033e+01  1.0310733889591109e+01  1.5739405138057991e+01  1.0713704767651624e+01  3.0099528969040758e+01  3.1000786917667543e+01  2.3144131984951020e+01  1.1466236789489269e+01  1.2624390210920984e+01  1.0422073459886519e+01  1.0386387954758945e+01  1.7004340342614540e+01  1.5365588437479847e+01  3.2842443811950879e+01  1.7461584147355502e+01  1.3115140510338875e+01  1.0625587932566090e+01  1.1070893135411930e+01  1.1073021055067910e+01  1.0738715083609581e+01  1.0717182526704443e+01  1.0357537215124868e+01  1.2667757704040584e+01  1.2273261587735734e+01  1.8697038117746779e+01  1.2661856292541167e+01  1.3715688871151821e+01  1.3888000767941138e+01  1.5874389122982043e+01  1.4175042313906349e+01  1.5683318515782924e+01  1.6168352599209712e+01  1.1158670306828428e+01  1.0826618284223381e+01  1.2610119188048879e+01  1.3584998358472856e+01  2.8039888713387295e+01  1.0702608167701236e+01  1.2816886531245656e+01  2.0183428694716000e+01  1.1758401684701447e+01  1.0120284739937263e+01  4.0663838779806966e+01  1.0387364652389623e+01  1.0353824786108088e+01  1.0084251109052088e+01  1.0423631004265019e+01  1.5458264285629177e+01  1.2809244472781733e+01  2.0142894750757058e+01  1.0234643009218273e+01  1.0172040909196918e+01  1.0702930637721536e+01  1.0084445663953405e+01  1.0234849980164725e+01  1.1610999899539939e+01  1.1625883111919567e+01  1.0877028451621142e+01  1.4930522533293628e+01  1.6797832343278440e+01  1.4195094191871821e+01  1.0936318583926692e+01  1.1959748125657841e+01  1.0335519499967267e+01  1.4273201075894635e+01  3.0507476596707718e+01  1.1162662418579801e+01  1.2946352875315453e+01  1.2610923343764634e+01  1.4634821431624506e+01  1.1880037166343831e+01  1.1704419308345386e+01  1.0677512211775401e+01  1.0997191228792239e+01  1.0099916335013418e+01  2.4787541209066365e+01  1.0396877241842773e+01  1.0482617088690874e+01  1.0567340512911883e+01  1.5622460188663450e+01  1.0865919108426860e+01  1.3392051252479883e+01  1.0169357669881441e+01  2.1818305555330539e+01  1.3923731784530569e+01  1.0520169603140534e+01  1.2033594922149661e+01  1.9843695527254571e+01  1.2022813097635852e+01  1.0119358541224095e+01  1.0114500625538893e+01  1.0474399840709543e+01  1.2188982756023854e+01  1.8913594430995058e+01  1.1404877777979564e+01  1.1701484798907618e+01  1.0094773443021593e+01  1.0182162386902490e+01  1.1913927896871991e+01  2.1413960643957381e+01  1.0446049741299850e+01  1.0374456328105333e+01  1.0459662377751343e+01  1.0510778485329649e+01  1.0458239666168133e+01  1.0526859853642984e+01  4.1079820516531711e+01  4.0985267925735684e+01  1.2137461742527625e+01  1.3445465104927701e+01  1.2175220857697694e+01  1.3188216254218881e+01  1.0334744091894335e+01  1.0265317076861594e+01  1.0880786096433402e+01  1.0844810958185331e+01  1.0609295794018397e+01  1.5870916298113109e+01  1.1767641872576082e+01  1.0188568238427203e+01  1.0088258991290530e+01  1.0224378904621716e+01  1.0323770214406743e+01  2.5347439380392672e+01  1.2909409510127036e+01  1.2063797701322601e+01  1.1653869549003257e+01  1.4345771290938286e+01  3.3725736392785102e+01  1.5146129705194502e+01  1.0439907635765179e+01  1.0411091750519253e+01  1.9632873999479010e+01  1.0076884634504991e+01  1.0068680127653160e+01  1.0098252816335441e+01  1.0480165247903381e+01  1.0539800162461635e+01  1.0447553330855026e+01  1.0814077241673724e+01  1.6881789814232015e+01  1.0320708463033226e+01  1.0076657315852014e+01  1.0326938659525542e+01  1.0238141481750365e+01  1.0264702322092852e+01  2.5576829686725873e+01  2.0665854965855285e+01  1.0492605736293710e+01  1.0573482378368057e+01  1.0769036789292768e+01  1.2124882160661016e+01  1.0340327878583887e+01  1.1017596412120490e+01  1.0269820511124241e+01  2.4768697042802000e+01  1.0189827559458399e+01  2.4830417759064368e+01  1.0399945573646741e+01  1.1374602332683951e+01  3.3128138750172099e+01  1.6103069460739455e+01  1.0616480313886383e+01  1.2365404573988979e+01  1.0270666799391618e+01  1.0244147496683270e+01  2.0079300494052614e+01  2.9228951738615663e+01  2.4285470567725394e+01  2.5498756446260639e+01  1.0098233084279203e+01  1.0378908131605193e+01  1.4495941138661198e+01  1.0773953574923825e+01  1.1556046321426203e+01  1.0616854306760800e+01  1.0094827286826719e+01  1.0991976374723169e+01  1.9411101936475397e+01  1.0910809554270275e+01  1.1156574064683911e+01  2.0258275819123760e+01  1.1621876526340138e+01  1.0702643574733980e+01  1.1770632885476200e+01  1.1408874664321560e+01  1.1689528148052924e+01  1.1438185517935123e+01  1.1286865927894029e+01  1.1153693381478263e+01  1.1377247219391002e+01  2.0198638948665053e+01  1.6783564361684331e+01  2.5081077079515691e+01  1.0199588834786303e+01  1.2971974576835949e+01  1.2524822143219502e+01  1.0321952814176475e+01  1.3394518276965142e+01  3.3687628087985559e+01  1.0436060991250180e+01  1.0855470734245170e+01  2.7008482953324556e+01  1.6766185750927555e+01  1.0274224219776702e+01  1.0250950042860783e+01  1.0161325884717558e+01  1.0505987514762555e+01  1.0631502257281921e+01  1.0866635826744554e+01  1.0074257796167931e+01  1.0363365685737195e+01  1.3676825214911140e+01  1.1418135392633740e+01  1.7656386905978490e+01  1.1524290210106082e+01  1.0394588257497078e+01  1.0864594647501015e+01  1.0597905510869115e+01  1.1858178802942493e+01  1.0141105513809778e+01  1.2892134469867674e+01  1.0222121733292495e+01  2.4881236079210922e+01  1.4441893248823860e+01  2.1351788983880262e+01  1.0345842732992741e+01  1.0136625565279520e+01  3.0888599816463238e+01  1.0161378154740518e+01  1.8139286441745615e+01  3.2541954491710769e+01  4.2196134915928440e+01  2.5349460240287890e+01  1.0534602572031424e+01  1.1128564000651442e+01  1.0253032752024609e+01  1.0712529645252078e+01  1.2364864398030983e+01  1.0166525534422041e+01  1.0126114321266058e+01  1.0129899906287511e+01  1.0143996166171370e+01  1.2636850291862794e+01  1.2060893502378033e+01  1.0082573777209774e+01  1.0228106331115928e+01  1.4143145509456970e+01  3.4969473881870854e+01  2.5941856274440976e+01  3.1851742160930936e+01  1.0301772134614659e+01  1.1573176897605242e+01  4.2626027738461438e+01  4.1902159517171164e+01  1.9674207865803357e+01  1.1384278923207546e+01  1.6399366939847390e+01  1.9736187375717531e+01  1.0295888081106504e+01  1.1534653122894442e+01  1.0341595965243668e+01  1.0243072838480225e+01  4.2314431123780139e+01  1.0626314451759862e+01  1.0273031888189397e+01  1.0367200078823807e+01  1.0283768188976204e+01  1.5808177129428435e+01  1.1045601433343800e+01  1.0535603916063124e+01  2.9161724926199152e+01  2.0140409689820331e+01  1.7303543163537359e+01  1.0936182532797600e+01  1.4803990208131218e+01  1.0279346184811230e+01  1.4835555735036580e+01  1.2688047783946613e+01  1.0065205547815321e+01  1.0068513775753944e+01  1.2795649088325606e+01  1.1302556480624061e+01  1.0171418546164816e+01  1.0647193211788750e+01  1.3798525534211240e+01  1.0460924374246314e+01  1.0542832704291868e+01  1.6585495590516885e+01  1.6554373741568867e+01  1.2196812654546441e+01  1.0360601588186125e+01  1.0074404516911459e+01  1.0406065869594761e+01  1.2699604917113083e+01  1.0119631717833025e+01  2.6385001475812924e+01  4.2015186142726073e+01  1.0955687907777945e+01  1.0142979293202748e+01  3.5886121644280024e+01  1.1191418871300739e+01  2.2326689440453837e+01  4.2842583314175563e+01  1.5882606604053619e+01  2.8393221007325618e+01  1.0191229007236574e+01  1.0485396417068618e+01  1.4531541023747703e+01  1.0156865192484190e+01  1.2466935824428861e+01  1.4643201126173434e+01  1.1522523833835399e+01  1.1169488230032039e+01  1.1149511981393749e+01  1.0618117980677486e+01  1.0908991146756797e+01  1.7263947865604930e+01  1.3325901294410997e+01  1.0583892475274800e+01  1.8803028785623340e+01  3.4228122914988184e+01  1.2778026440217035e+01  4.3754230746940024e+01  1.1744732611985263e+01  1.5221919881652584e+01  1.2778121516989607e+01  1.4622234824176722e+01  1.5104402691703756e+01  1.4641738903098689e+01  1.8803638565519705e+01  1.1282196939303246e+01  2.8471517951371922e+01  2.5672638686184612e+01  1.1440564660417069e+01  1.0134108696399192e+01  1.0221491179484156e+01  1.1298989619565800e+01  1.0914180527473420e+01  1.1831262555533737e+01  1.1489282311412083e+01  1.1909121595909328e+01  1.2668501340301431e+01  1.3607385391925805e+01  1.3647421107639516e+01  2.2682330208517946e+01  1.0327401101837783e+01  1.0415298053063513e+01  1.7689916726656989e+01  1.1476412770059643e+01  1.6475252819405405e+01  1.1361927601417715e+01  1.0225837310575205e+01  1.4964982081865058e+01  1.3374134809729949e+01  1.2307664696819243e+01  1.0980501891078914e+01  2.3221315917732600e+01  1.1095679281059702e+01  1.6609781914189504e+01  2.3044027933805602e+01  1.1422512100273579e+01  1.0985714405519968e+01  1.0794876320022381e+01  1.0886103781434135e+01  2.3552644462041815e+01  1.0545018579288381e+01  1.0746488396101359e+01  1.0931341053475617e+01  1.9813497239370090e+01  3.5653246540123384e+01  1.0320936804653218e+01  2.7943604856521084e+01  1.1128722756462045e+01  1.1191168157077108e+01  1.0845996083988092e+01  1.3045837341229882e+01  1.2055728962712184e+01  1.1075553015484681e+01  1.1853764960357207e+01  1.8997849596989333e+01  1.0349513189549254e+01  1.1499246662092911e+01  1.0907858046166966e+01  1.1605933165680014e+01  1.0558392645450482e+01  1.6368226912959340e+01  1.6471900733674381e+01  1.1421974808363535e+01  1.5437580657378783e+01  1.4075531041337486e+01  1.1258910400879394e+01  1.0095164263266771e+01  1.0741748537566128e+01  1.0984524010515672e+01  1.4633163675976506e+01  1.0516475081591455e+01  1.0461894839568783e+01  1.1594598408984057e+01  1.0585694692933814e+01  1.1399714474142407e+01  1.1244107938799196e+01  1.9218296669676235e+01  1.2168439307356488e+01  1.1065723629784655e+01  1.0461425868699006e+01  1.3325457659589325e+01  1.3237397873624442e+01  1.2353821093876533e+01  1.2292225204028755e+01  1.0833623292078981e+01  1.0818896947434139e+01  1.1256862228301731e+01  1.0399670693575588e+01  1.4852306692349988e+01  1.3229728000849711e+01  1.2718453115281426e+01  1.0834819828869048e+01  1.0110247136254008e+01  2.2241137914707632e+01  1.0202545788822944e+01  2.8661339760962395e+01  1.0213779424077297e+01  1.0192221709266285e+01  1.2800994332647580e+01  1.0548668219143009e+01  2.0422778032677343e+01  1.0113904479512273e+01  1.7233890620376638e+01  1.0116861476796339e+01  1.1396778736568089e+01  1.7733818842538057e+01  1.1009860519322267e+01  1.0373863817644155e+01  1.2038028323021692e+01  1.0508505840160524e+01  1.0397582523690478e