<?xml version="1.0"?>
<VTKFile type="UnstructuredGrid"  version="0.1"  >
<UnstructuredGrid>
<Piece  NumberOfPoints="2743" NumberOfCells="5270">
<Points>
<DataArray  type="Float64"  NumberOfComponents="3"  format="ascii">-0.12 0.1 0  -0.12 0 0  -0.01986476715483886 0 0  -0.01986476715483886 0.002321858282504599 0  -0.01879385241571817 0.006840402866513377 0  -0.01670975622825873 0.01099017956141612 0  -0.01372483275737467 0.01454747283146098 0  -0.009999999999999995 0.01732050807568877 0  -0.005736064654221804 0.01915979024630978 0  -0.001162896578209515 0.01996616316542536 0  0.003472963553338608 0.01969615506024416 0  0.007921595320783138 0.01836432213760548 0  0.01194317183405572 0.01604246385510088 0  0.01532088886237956 0.01285575219373078 0  0.01787265280646825 0.008975983604009244 0  0.01946089741159648 0.004612317414848803 0  0.02 0 0  0.12 0 0  0.12 0.1 0  0 0.1 0  0.06 0.1 0  -0.06 0.1 0  0.12 0.05 0  0.06999999999999999 0 0  -0.12 0.05 0  -0.06993238357741943 0 0  0.06954545454545454 0.05045454545454546 0  -0.05256818197129183 0.04876858210896794 0  0.03 0.06852793994995832 0  -0.01060230953534651 0.06012868531377026 0  -0.08590602075287224 0.07008722490344668 0  -0.08700383268980955 0.03297312682365156 0  0.09 0.1 0  0.09454951298701297 0.02545048701298702 0  0.04421726329698947 0.02908215157121827 0  -0.03 0.1 0  -0.09 0.1 0  0.03 0.1 0  0.094941534914361 0.0689649209486166 0  -0.045 0.07602120282224097 0  0.0137000972673793 0.04576151173676769 0  -0.04489857536612915 0 0  -0.02795527007175781 0.03755044438085961 0  -0.06241371758055736 0.02479853554667227 0  0.06931814492325854 0.02522317739079102 0  0.0562106357694593 0.07357769546517523 0  -0.09496619178870971 0 0  0.12 0.025 0  0.095 0 0  -0.12 0.025 0  -0.12 0.07500000000000001 0  0.12 0.07500000000000001 0  0.045 0 0  -0.0228302666921874 0.07883391093803507 0  0.09815763663419913 0.04717696422689629 0  0.04642316516164364 0.05216224004895101 0  0.015 0.08426396997497916 0  0.07685335020605615 0.08199579006851358 0  -0.03212624651891543 0.05871373573766032 0  -0.06454151582324234 0.06677080404579981 0  -0.007428983740834363 0.03973215840314246 0  -0.04143162460864844 0.02103341629232999 0  -0.07788632568368571 0.05127672197436213 0  -0.09902623975019198 0.05337871787903269 0  -0.075 0.1 0  -0.1014173577311382 0.0832008292773658 0  0.105 0.1 0  0.008793975861786027 0.06520032249375621 0  -0.003877486809385651 0.08128666365361911 0  0.04056005001669608 0.08426396997497916 0  -0.07890609788649815 0.0162597993618741 0  -0.1010699031813867 0.01892186545593956 0  0.08267954418645374 0.03858457665398622 0  0.08249999999999999 0.01250797385719048 0  0.1070573481575616 0.01294265184243836 0  -0.1072273189424094 0.0375 0  0.05487128127324764 0.0148172916808382 0  -0.07306292723448589 0.08234923187849305 0  0.02604316659281994 0.02760414390118441 0  0.03422315740010771 0.01291039266157378 0  0.02953764603397802 0.05164069645856708 0  0.05711184749668567 0.0394951990120913 0  0.1048403709991175 0.08290422259947053 0  0.07836733468041428 0.06502779237175893 0  -0.015 0.1 0  0.107641636468974 0.05970823073603768 0  0.12 0.03750000000000001 0  -0.07203199631147464 0.0369378911801824 0  -0.05383214135241159 0.01227496304049853 0  -0.12 0.0625 0  -0.105 0.1 0  0.075 0.1 0  0.015 0.1 0  -0.045 0.1 0  0.045 0.1 0  -0.10518488525811 0.06789183644845204 0  -0.04335959578005873 0.03636269925572742 0  -0.05884641539443965 0.08000585119468683 0  -0.02074261661302542 0.04996461834162433 0  -0.02653136512200803 0.0222624586885067 0  -0.08714978711530966 0.08578346506967012 0  -0.03506452979410112 0.08648708658184591 0  -0.04620947545617006 0.0616799095273325 0  0.0006562636529589983 0.05143519384945657 0  0.1057204605480501 0.03475816363918364 0  0.09074280792825767 0.08565566471894244 0  0.005667439598789157 0.03387418246945268 0  -0.03238167126048401 0 0  0.0383080886578613 0.04129238651963005 0  0.08505369180647195 0.05254495235246789 0  -0.1074830958943549 0 0  -0.12 0.0125 0  0.05414542183412842 0.08735675763730583 0  0.04308500944676981 0.07115822817126308 0  0.0649349230807125 0.06320229510900416 0  -0.05637247339858926 0.03632415216907382 0  -0.01542434356580282 0.02929607297537314 0  0.02778002500834804 0.08142901444438948 0  -0.06542774243586742 0.04799884169932159 0  -0.06661544991358234 0.0127173865239021 0  0.08192808295131557 0.02597463862592918 0  0.07006960615839669 0.03783311541884806 0  0.06988230421815755 0.01261762329223161 0  -0.12 0.08750000000000001 0  -0.08244928768306457 0 0  -0.05741547947177429 0 0  -0.03984291085584598 0.04859364585838993 0  0.08249999999999999 0 0  0.12 0.0625 0  -0.12 0.03750000000000001 0  0.12 0.0125 0  0.0325 0 0  0.0575 0 0  0.1075 0 0  0.12 0.08750000000000001 0  0.02042070411167864 0.06034025931465875 0  0.05702213417260474 0.02706267745085339 0  0.0675 0.09013045458016318 0  0.09478643990600856 0.0122865785926504 0  -0.04904630236735645 0.08801060141112049 0  0.02613192868361687 0.0398635327923046 0  -0.09569137037305205 0.04159910065917647 0  0.05140611894455763 0.0628291923813368 0  0.1085809652542695 0.07158881227331852 0  0.05796589338150855 0.05105903259253412 0  0.03841143349411784 0.06054564265388553 0  -0.02947166435407259 0.01113520957350828 0  -0.1102478054683027 0.05625 0  -0.09068017366517905 0.01182794374687028 0  -0.01434600857542353 0.08772663538203848 0  -0.03362945317777148 0.07517582904977035 0  -0.01235387050651601 0.0723330924144738 0  -0.02307888867457602 0.06674121501662693 0  -0.002185408069912574 0.06756456274836646 0  0.0678638500046832 0.07452078468888843 0  0.08597040057425252 0.07558162872540394 0  0.09674588960513322 0.05809991882890109 0  0.1094709655577269 0.04555436451412986 0  0.09473770132491341 0.03658207429318428 0  -0.06454868296360231 0.08970720561340952 0  0.1088432154030167 0.02400081163981114 0  -0.07748216799376378 0.02726807518039781 0  0.0075 0.09213198498748959 0  0.01849963805527029 0.07258270415679953 0  0.0225 0.09213198498748959 0  -0.07477959581424944 0.07129038985899076 0  -0.05389685222033951 0.06954987308797576 0  -0.05952130701477828 0.05712689877479761 0  -0.09084078800149091 0.02274804774342801 0  -0.09837161430440977 0.03085986409994825 0  -0.05131093786741553 0.0263250162658456 0  0.01635618606258252 0.03530907600454269 0  -0.03460613037873773 0.02922068783924693 0  -0.04043226315035484 0.01006625299372829 0  0.08175024910257063 0.09159737271826002 0  -0.09494035380298299 0.06367583527464522 0  -0.0886934906578859 0.04994210372431981 0  -0.02490130542947547 0.09038352188878838 0  0.04417108737523257 0.01793664269923905 0  -0.003940932065510782 0.02996170313966536 0  -0.01783357510351885 0.03997209276407525 0  -0.009556322084365085 0.04984630266759408 0  -0.09566755421412014 0.074271403467777 0  0.0355203970594753 0.02354533265972011 0  0.006555555071563847 0.07647100871020274 0  -0.07937685857812513 0.06175606142440594 0  -0.082228823034201 0.04201720146426499 0  -0.06983948840172999 0.05776693996935201 0  -0.09555085505908593 0.09149315155487603 0  -0.1098516392886323 0.0771584086134595 0  0.0975 0.1 0  0.01159727503865655 0.05556931308228881 0  -0.1115659278883601 0.01875 0  -0.1012246438415323 0.008426566493923617 0  0.01474516449273796 0.0255393740673827 0  0.08779480154260712 0.06219573447921576 0  -0.1125 0.1 0  -0.109677715301956 0.0898066291811736 0  0.1125 0.1 0  -0.1076436806656361 0.02771938223489072 0  -0.1109003748179492 0.009075404417277109 0  -0.03013785075543634 0.04712089514258909 0  -0.004952464847218618 0.0912677883600678 0  -0.1065795284902037 0.04722264329381553 0  0.04842831953664987 0.07898377417315099 0  0.03252098192319938 0.09028046125939154 0  0.02476218534733019 0.01628634550873906 0  0.04791904264346727 0.04258131505029045 0  0.06144185941573184 0.08140605316446399 0  0.1108170457022867 0.09049022742137205 0  -0.08249999999999999 0.1 0  -0.07849279483093181 0.09068500987040669 0  0.09901040145429967 0.0905247702494426 0  -0.07619083563024201 0.007152163970009891 0  -0.03784209605914159 0.06649148111429766 0  0.03557615988040569 0.07650767001919569 0  0.03302905362294855 0.03368357951329398 0  0.001528049998133968 0.0421884697145129 0  -0.06677219502603519 0.0755735126223121 0  -0.07078299185927128 0.02093806600642789 0  0.07624698700554428 0.01898789084580359 0  0.0425071772133816 0.008872273040118464 0  0.06222675218673776 0.01983691994242202 0  0.05125 0.006533019494560529 0  -0.08112674022156063 0.07793832028046994 0  0.0894563302875119 0.04461415956113914 0  0.07600555403016987 0.04440122631805228 0  0.1011730931788228 0.01956623203424818 0  0.08875791189114002 0.01876216216110217 0  0.07625 0.006253986928595243 0  0.10125 0.00625378014893175 0  0.06159289116562519 0.008367939956509781 0  0.1133219866490167 0.006678013350983326 0  0.12 0.03125 0  0.08875 0 0  0.09447377394606553 0.07772073910541109 0  0.1125347363168419 0.07917181005820358 0  -0.0360489221788708 0.04088174671649498 0  0.07238835401788725 0.0586903785336876 0  0.07770534388963661 0.0735202678075017 0  -0.02352204721963873 0.05812853133009549 0  0.02771469012026706 0.007208889738796465 0  0.06289457418076626 0.0332368862735679 0  0.02997504279709136 0.060078672135782 0  0.0379740367310045 0.0521076669766706 0  0.02209772318747019 0.04741115745969623 0  -0.0375 0.1 0  -0.04152152214341864 0.09214855581173653 0  0.07670804270236463 0.03261307516989712 0  0.08846339346732941 0.03112076208171376 0  0.06426407185079112 0.0439136177978413 0  0.05037140838704721 0.03465168226171754 0  -0.1136136594712047 0.0428084044537857 0  -0.113526383098718 0.06949936267301912 0  -0.002312773411525084 0.05922711625796673 0  0.04612867834591947 0.09118715625326625 0  0.0525 0.1 0  -0.0525 0.1 0  -0.05642436013397981 0.09226832717651308 0  0.12 0.01875 0  0.0375 0.1 0  -0.1021974954105155 0.06059626541185022 0  0.04989633308677061 0.02348577305550612 0  -0.12 0.03125 0  0.003928287502683688 0.08448841352572942 0  0.1030125400079595 0.05335714910633224 0  0.1025673057510353 0.0660868
[...]
<PointData  Scalars="f_29"> 
<DataArray  type="Float64"  Name="f_29"  format="ascii">1.0002319482560182e+01  1.0030188216118013e+01  5.0000000000000000e+01  4.9999999999999993e+01  5.0000000000000000e+01  5.0000000000000000e+01  5.0000000000000000e+01  5.0000000000000000e+01  5.0000000000000000e+01  5.0000000000000000e+01  5.0000000000000000e+01  5.0000000000000000e+01  5.0000000000000000e+01  5.0000000000000000e+01  5.0000000000000000e+01  5.0000000000000000e+01  5.0000000000000000e+01  1.0030386321032685e+01  1.0002313674395607e+01  1.0173797016404635e+01  1.0040684381575048e+01  1.0040613886063616e+01  1.0012444770922899e+01  1.1084524333189686e+01  1.0012500512741246e+01  1.1089026197571183e+01  1.0290931445562563e+01  1.0946035599180901e+01  1.0735900545769114e+01  1.2229417266913078e+01  1.0034650964500450e+01  1.0158812546095991e+01  1.0008359582346268e+01  1.0105926599705350e+01  1.4184193843159191e+01  1.0118499322183121e+01  1.0008348893995306e+01  1.0118594743689757e+01  1.0019839772275434e+01  1.0241213229370274e+01  1.6174198871792036e+01  1.7626354270289820e+01  1.6618019124818744e+01  1.1365098534939658e+01  1.0795768139458836e+01  1.0167459824269082e+01  1.0135968086147191e+01  1.0024095611818490e+01  1.0135968475438068e+01  1.0024040362079953e+01  1.0004668155780932e+01  1.0004658294719752e+01  1.7573436689494404e+01  1.0410629928946886e+01  1.0041022061795195e+01  1.1100218738991185e+01  1.0317320836174588e+01  1.0031888023596576e+01  1.1387556543313313e+01  1.0161588938889658e+01  2.0538691094084680e+01  1.6783121253842424e+01  1.0155612333371618e+01  1.0030340237841658e+01  1.0019327010661222e+01  1.0006661888213916e+01  1.0003604846845843e+01  1.1530439084212134e+01  1.0441730005780844e+01  1.0163179827547573e+01  1.0453883688592615e+01  1.0070407564596614e+01  1.0184120562809136e+01  1.0358165841389940e+01  1.0048715845345123e+01  1.0029615660168396e+01  1.3088694665205686e+01  1.0039123753487996e+01  2.2540829727811879e+01  2.3806258348852239e+01  1.2509486467458490e+01  1.1135937413968065e+01  1.0005546549520886e+01  1.0074821759566884e+01  1.0156601285265841e+01  1.0013162995286764e+01  1.0018215862387892e+01  1.0438855555934763e+01  1.3511722138069539e+01  1.0007822136936511e+01  1.0003598783512755e+01  1.0019308743333923e+01  1.0157501200129207e+01  1.0074665338255201e+01  1.0074759660445366e+01  1.0010700919902288e+01  1.3147350797164973e+01  1.0096586162882970e+01  1.3822577250836837e+01  2.5722276819086630e+01  1.0014321581355270e+01  1.0170912670923727e+01  1.0607158960434399e+01  1.4675213801163769e+01  1.0035413380214601e+01  1.0011494192063648e+01  2.6072782915312303e+01  2.8326164910739188e+01  1.3219338211018334e+01  1.0087274518072155e+01  1.0050612826311303e+01  1.0028456779334434e+01  1.0077905261965704e+01  1.0368601916190844e+01  1.0195161027009846e+01  1.1376325479407983e+01  2.7440203699009412e+01  1.0299172764093576e+01  1.0431599930240507e+01  1.1293365707554079e+01  1.0288494110948543e+01  1.0490759874768997e+01  1.0999391363063969e+01  1.0002887508017762e+01  1.0388273522910126e+01  1.2957344013045182e+01  1.1931392605411258e+01  1.0388185413792323e+01  1.0007813224022518e+01  1.0018270270080418e+01  1.0028667110792643e+01  2.8223198325433874e+01  1.2941896405942718e+01  1.0050394472293110e+01  1.0002883522612516e+01  1.1798129168211359e+01  1.1886391779553408e+01  1.0035812380511711e+01  1.0128752568144156e+01  1.0093772907966825e+01  1.6234148191846803e+01  1.0060662789207809e+01  1.0432354165326201e+01  1.0007436862911691e+01  1.0599131405091573e+01  1.0945463362490601e+01  2.9420597568053161e+01  1.0013090782513984e+01  1.0182469256804406e+01  1.0252151999682292e+01  1.0398062426363911e+01  1.0830757091378036e+01  1.1035223065835586e+01  1.1319707198844299e+01  1.0083361933139150e+01  1.0025632306977636e+01  1.0029128909427351e+01  1.0020116770272564e+01  1.0076866266920014e+01  1.0042366573078729e+01  1.0036682477545787e+01  1.0397734447033022e+01  1.0209296173079846e+01  1.0732349164792028e+01  1.0171463311174714e+01  1.0066506666196828e+01  1.0245322632863132e+01  1.0387347854847910e+01  1.0150722380227007e+01  1.0068036366854734e+01  1.2888608247437897e+01  2.1714787468141889e+01  1.7414259141351817e+01  1.9618455113492722e+01  1.0015564508633609e+01  1.0025648049805126e+01  1.0075201633435025e+01  1.0178075962810757e+01  1.6215318523594714e+01  3.1177160432328854e+01  1.8283891823045447e+01  1.4940723032963241e+01  1.0014582588054598e+01  1.9022971658299642e+01  1.0632658177169779e+01  1.0083659764531742e+01  1.0168149289877988e+01  1.0194541091667912e+01  1.0006941071777227e+01  1.0005487639904663e+01  1.0005420957001972e+01  1.3112306920022130e+01  1.0033923840671283e+01  1.0078871767514091e+01  3.2198808946603663e+01  1.0045573228329509e+01  1.0002622854849157e+01  1.0003404655303600e+01  1.0002623561756723e+01  1.0036781099749639e+01  1.0039196324748032e+01  1.3316445057961584e+01  1.0222037807819484e+01  1.0022654248012756e+01  1.0170163669135594e+01  1.0147957651448243e+01  3.1973498491932578e+01  1.1743949035547232e+01  1.0077792059115485e+01  1.0003199218965282e+01  1.0012843393340795e+01  1.0019383498316033e+01  1.0005833654802192e+01  1.0634837608787658e+01  1.0638718624464472e+01  1.0336128470182782e+01  1.6449779323873347e+01  1.9248275668693374e+01  1.0082946375405477e+01  1.0794314492222222e+01  1.0535428719507726e+01  1.8490014745935571e+01  1.1579947907959598e+01  1.4608175698651202e+01  1.0030891583236981e+01  1.0087435583046956e+01  1.0242299097993216e+01  1.0069414380179804e+01  1.0194338394414780e+01  1.0636702744893004e+01  1.0079799948704292e+01  1.2037327701762161e+01  1.0035014412822484e+01  1.0021135742612989e+01  1.0229610319947374e+01  1.0013225071234809e+01  1.0004497255144914e+01  1.3702819529434658e+01  1.0157227763769979e+01  1.0048713907527445e+01  1.1950919944251730e+01  3.3476100054954330e+01  1.0987354678126527e+01  1.1368296845629462e+01  1.1689797214215414e+01  1.4384731416487542e+01  1.0095941570937361e+01  1.0101714176383037e+01  1.0360393063254834e+01  1.0149322076457157e+01  1.0570064862549588e+01  1.2201501032861195e+01  1.0017967382767617e+01  1.0006606001984078e+01  1.2559002747484886e+01  1.0089542616919573e+01  1.0056110724914362e+01  1.0055917589884670e+01  1.0055948213844157e+01  1.0026564176192258e+01  1.0096344532828416e+01  1.0017908109098382e+01  1.3526576286513734e+01  1.0021193942857037e+01  1.0346999975709931e+01  1.0022870104668113e+01  1.0013651174649954e+01  1.0009916146417382e+01  1.1803293916190276e+01  1.2257351649481661e+01  1.0047319075586733e+01  1.0696762815005714e+01  1.0156888083512575e+01  2.2246899114504892e+01  1.0447888523637182e+01  1.0268278500672892e+01  1.0271043129288156e+01  1.0704763993319663e+01  1.4778892456490516e+01  1.1797655374488697e+01  1.0048355253299194e+01  1.0010459378556849e+01  2.2095801381035578e+01  1.0345500298458830e+01  1.5688376702542563e+01  1.1984107630409182e+01  1.5929677283398044e+01  1.0043266203173820e+01  1.0013233348822805e+01  1.0139654571269107e+01  1.0197765639430395e+01  1.0139757104300894e+01  1.0168852370419772e+01  1.0028440566073694e+01  1.0028465042284683e+01  1.0012790223034363e+01  1.0005433641489356e+01  1.0169238246221132e+01  1.0018532843297285e+01  1.0011860445021833e+01  3.4102382199243436e+01  3.4906464179418386e+01  1.1042647707977343e+01  1.0878718923287506e+01  1.0023069462935497e+01  1.0026091579435498e+01  1.0892615619614480e+01  1.0006047022345802e+01  1.0008055078905986e+01  1.0002463674984456e+01  1.1020587530889360e+01  1.1247116262430440e+01  1.0062527161273941e+01  1.0034448455330411e+01  1.0010349363192894e+01  1.0003655691437977e+01  1.0008509378061435e+01  1.0082733572248404e+01  1.0133097634258867e+01  1.0250275364789566e+01  1.0228301887033833e+01  1.0229444050188500e+01  1.0165559821785447e+01  1.0112330940687141e+01  1.0404836085523050e+01  1.2916464406369849e+01  1.0018702770197097e+01  1.0008184822342916e+01  1.3174756574654547e+01  3.5469081873732975e+01  1.9773452853980160e+01  1.0025220642221081e+01  1.0056823324081979e+01  1.3125909523047422e+01  1.5352842697818977e+01  1.0004813762755859e+01  1.5143909785362036e+01  1.0024197364474674e+01  1.0140970536207314e+01  1.0032536288545559e+01  1.0083682849504367e+01  1.0054495172455638e+01  1.0102822575556798e+01  1.1686303088853391e+01  1.0232357205539687e+01  1.0571526125837901e+01  3.5977071686585496e+01  1.0317592105535805e+01  1.0349433031840697e+01  1.0226720932050982e+01  1.0047181157194871e+01  1.0052653303030580e+01  1.0743924741022630e+01  1.0168693110508645e+01  1.2984473303091919e+01  1.0014622342648183e+01  1.0008952502858882e+01  1.0115715188061422e+01  1.0277151592416352e+01  3.6618737537988260e+01  1.0247972103513778e+01  1.0008004599172642e+01  1.3631283649065949e+01  1.1889986594367009e+01  1.0151592531767598e+01  1.0040973839498061e+01  1.0606869934716904e+01  1.0627315908318161e+01  1.6767252771666538e+01  1.0109985969465992e+01  1.0137768938070097e+01  1.5168087940120680e+01  1.7233377478709858e+01  2.4468944676640668e+01  2.1848970671110312e+01  2.3688507920432439e+01  1.1086737345701740e+01  1.0290485272582712e+01  1.0526519861766175e+01  1.0185717815194623e+01  1.3144535233629261e+01  1.0018425805240771e+01  1.0112473795718705e+01  1.0002458864374232e+01  1.0557146631720544e+01  2.2740629345657492e+01  1.1022363175977388e+01  1.1099867986206162e+01  1.0537379277259896e+01  1.0401241367209439e+01  1.0223867080696293e+01  1.0240076442960834e+01  1.0252480370537249e+01  3.7503570385662876e+01  1.0024645458603951e+01  1.1938376607727355e+01  1.0086306827916285e+01  2.4188399270812276e+01  2.5225374016091802e+01  1.7178381426189709e+01  1.0248506145151067e+01  1.0587000143171270e+01  1.0034922623153449e+01  1.0029852430076811e+01  1.2635253194475967e+01  1.1747239007561834e+01  2.7360030293006606e+01  1.2924195632915444e+01  1.0760961853599833e+01  1.0059187963361975e+01  1.0137590033884408e+01  1.0143573246975956e+01  1.0081251892314665e+01  1.0070951459336309e+01  1.0027904151214052e+01  1.0603391354711624e+01  1.0474449315887515e+01  1.3720365250742091e+01  1.0600781814608624e+01  1.0995919347383113e+01  1.1065157277590831e+01  1.2000486154096167e+01  1.1167441508059927e+01  1.1885229280273697e+01  1.2155819022973541e+01  1.0173672259491308e+01  1.0105030081841630e+01  1.0545805721488625e+01  1.0908244753502453e+01  2.1953978527772708e+01  1.0081309737301693e+01  1.0653849673336159e+01  1.4788012668457307e+01  1.0323499628204841e+01  1.0006080844218680e+01  3.7303494122629168e+01  1.0029991570437094e+01  1.0026453428743059e+01  1.0003600979570422e+01  1.0035172432562767e+01  1.1795402977623462e+01  1.0651485090494846e+01  1.4756865269033151e+01  1.0015221141940778e+01  1.0009998673831600e+01  1.0081449731379537e+01  1.0003619822697969e+01  1.0015235127830911e+01  1.0247462048888689e+01  1.0236260985655749e+01  1.0115383759914884e+01  1.1532434101520799e+01  1.2528966928776054e+01  1.1197304253781816e+01  1.0114261408681790e+01  1.0379939792812173e+01  1.0025004499874187e+01  1.1205416513319124e+01  2.4657186335709856e+01  1.0175890235628902e+01  1.0661712632904432e+01  1.0549078594832091e+01  1.1364925051879963e+01  1.0310453623943472e+01  1.0270667160962484e+01  1.0077395707340369e+01  1.0138848580998665e+01  1.0004802236041014e+01  1.8689453117769286e+01  1.0036709343373069e+01  1.0048060864302398e+01  1.0059915265928046e+01  1.1851449325625376e+01  1.0115193281789956e+01  1.0856314533368765e+01  1.0010030354288197e+01  1.6065516578623079e+01  1.1053540331739722e+01  1.0050247583821253e+01  1.0396775897701028e+01  1.4535691944454966e+01  1.0383424978577056e+01  1.0006322831765097e+01  1.0005741487816435e+01  1.0044618545771108e+01  1.0405119669958228e+01  1.3855504483071334e+01  1.0233385482135754e+01  1.0309302095341129e+01  1.0004381994122468e+01  1.0010862455578685e+01  1.0367850604232231e+01  1.5733238328022992e+01  1.0041872715554845e+01  1.0032991984146440e+01  1.0046444629086142e+01  1.0051605026821154e+01  1.0043155023310183e+01  1.0056170697505916e+01  3.7860031435083421e+01  3.7727026808991845e+01  1.0433772067898582e+01  1.0871447111516357e+01  1.0443895702791615e+01  1.0787876908741829e+01  1.0025291352403675e+01  1.0020174606438010e+01  1.0117091063115810e+01  1.0106403906412648e+01  1.0066901226477487e+01  1.2010907391057838e+01  1.0326432379778963e+01  1.0012702266012928e+01  1.0003934229404795e+01  1.0014646300378725e+01  1.0026861940089647e+01  1.9220169073307236e+01  1.0657567847043271e+01  1.0384030509423733e+01  1.0294891234047842e+01  1.1262024715999365e+01  2.8441490157500244e+01  1.1628714607519976e+01  1.0036090330662939e+01  1.0035243788710643e+01  1.4377806532779902e+01  1.0003129100059025e+01  1.0002611743564151e+01  1.0004537849137026e+01  1.0045060401753863e+01  1.0056178649293688e+01  1.0044013290916126e+01  1.0103829198574296e+01  1.2574402169479598e+01  1.0025363059906070e+01  1.0003110385684964e+01  1.0027319486095330e+01  1.0017377964223629e+01  1.0020812074448742e+01  1.9454776565034937e+01  1.5152257900841844e+01  1.0049588405704799e+01  1.0063085552796640e+01  1.0095061928334689e+01  1.0429508627659093e+01  1.0030182848467339e+01  1.0143657283400985e+01  1.0018637360211031e+01  1.8673743342911894e+01  1.0012360301754384e+01  1.8735062829274877e+01  1.0032273728842323e+01  1.0224697766971682e+01  2.7713453606221545e+01  1.2135435107042266e+01  1.0063291251223260e+01  1.0503822095465869e+01  1.0021553770474959e+01  1.0018294458228942e+01  1.4698668972608345e+01  2.3232526973591884e+01  1.8226965466009339e+01  1.9364097403461486e+01  1.0004538921250667e+01  1.0034775676974851e+01  1.1328766349433112e+01  1.0096878922072456e+01  1.0261410752833672e+01  1.0062428394578685e+01  1.0004344980399495e+01  1.0111065326321416e+01  1.4223707374979616e+01  1.0124547551415310e+01  1.0137107917176415e+01  1.4840113792652982e+01  1.0262760942625425e+01  1.0068190760051568e+01  1.0326987584055344e+01  1.0232635893298610e+01  1.0257761939927050e+01  1.0186382018669145e+01  1.0158444563425624e+01  1.0137899661963218e+01  1.0174640410220718e+01  1.4787465466262034e+01  1.2513694219250947e+01  1.8958474554559601e+01  1.0012822539705050e+01  1.0708780730684568e+01  1.0511797186043928e+01  1.0027630797623091e+01  1.0841830564311595e+01  2.8385176785388250e+01  1.0035485910595474e+01  1.0089534050694233e+01  2.0875132486915675e+01  1.2505598957519346e+01  1.0021916400627203e+01  1.0019386847127965e+01  1.0010008218452228e+01  1.0053227880063959e+01  1.0072819466240629e+01  1.0115960669724554e+01  1.0002971660391122e+01  1.0028386413619279e+01  1.0967301732176159e+01  1.0203132937307528e+01  1.3045149772157988e+01  1.0263570562069761e+01  1.0031629850129058e+01  1.0111909656515845e+01  1.0063024497314444e+01  1.0302185140959859e+01  1.0008189864026386e+01  1.0681676279580170e+01  1.0016105905991363e+01  1.8783161904462158e+01  1.1288444227854406e+01  1.5687070681279117e+01  1.0030852290582722e+01  1.0007747715608806e+01  2.5084857235312406e+01  1.0009803054476457e+01  1.3339477086738450e+01  2.7013178933467792e+01  3.9351875355938375e+01  1.9221777388556717e+01  1.0051733069605394e+01  1.0169596920824265e+01  1.0018369499679604e+01  1.0087170834748425e+01  1.0480741038432948e+01  1.0009890353987194e+01  1.0006773943784967e+01  1.0006738290764188e+01  1.0007860429765694e+01  1.0590299129898261e+01  1.0370916730857934e+01  1.0003512057349019e+01  1.0014802687471256e+01  1.1172894391269546e+01  2.9963767715776836e+01  1.9805018629125321e+01  2.6209290988133692e+01  1.0023343485608367e+01  1.0232245723942778e+01  3.9943315601643512e+01  3.8966256061173056e+01  1.4405421463657298e+01  1.0172630590588209e+01  1.2276622517887718e+01  1.4444618243333135e+01  1.0021822198959073e+01  1.0265417498198039e+01  1.0027430241149606e+01  1.0017011237912328e+01  3.9518928232040061e+01  1.0070720521105851e+01  1.0020908196333574e+01  1.0030163974851934e+01  1.0021176508759927e+01  1.1948468188499684e+01  1.0124327686179845e+01  1.0057812340577481e+01  2.3158612766670863e+01  1.4745435555096199e+01  1.2821168396051430e+01  1.0129192007158087e+01  1.1469272398302964e+01  1.0019515072033077e+01  1.1462810579660973e+01  1.0589672368920564e+01  1.0002393645503133e+01  1.0002598806839513e+01  1.0634074086442316e+01  1.0176972931497781e+01  1.0010116749580405e+01  1.0071509931796513e+01  1.0995223077084315e+01  1.0040868460877329e+01  1.0054095858214213e+01  1.2400932406702372e+01  1.2386075129308880e+01  1.0450621792647498e+01  1.0032787199943060e+01  1.0002977046737664e+01  1.0032721614034205e+01  1.0603325227280944e+01  1.0006045088302523e+01  2.0254828855516188e+01  3.9105886769092187e+01  1.0130415608350539e+01  1.0008094933159907e+01  3.1106969235613875e+01  1.0157398732837878e+01  1.6482672368576296e+01  4.0223282683249124e+01  1.2016164237552482e+01  2.2320124501744932e+01  1.0011661055873411e+01  1.0050122767102323e+01  1.1319508501974568e+01  1.0009318726071117e+01  1.0536474977093150e+01  1.1395413657953071e+01  1.0249738270701691e+01  1.0162180916836629e+01  1.0164537901173464e+01  1.0070125302497868e+01  1.0114117102717875e+01  1.2801921523322349e+01  1.0841146360141108e+01  1.0065733410205866e+01  1.3786332388415588e+01  2.9060377801313457e+01  1.0640787255441857e+01  4.1456883545645965e+01  1.0321167395191692e+01  1.1675476983319030e+01  1.0640572578777755e+01  1.1388388254318357e+01  1.1617953213893376e+01  1.1399125826380342e+01  1.3791832531230044e+01  1.0187513881234880e+01  2.2385578457679255e+01  1.9527918087183700e+01  1.0238873350554277e+01  1.0007131372827910e+01  1.0015248876350091e+01  1.0203197024796470e+01  1.0124983135969261e+01  1.0318839046035253e+01  1.0233021442493904e+01  1.0349957162599523e+01  1.0603822283624689e+01  1.0951090406388293e+01  1.0966748517498404e+01  1.6797708839355177e+01  1.0028023755666947e+01  1.0038320959190777e+01  1.3055319005639259e+01  1.0196065375459920e+01  1.2324860130851846e+01  1.0221834247926218e+01  1.0014626541046880e+01  1.1550870919477127e+01  1.0850856079999096e+01  1.0482513794018683e+01  1.0108402460882875e+01  1.7246557564385277e+01  1.0162081133262992e+01  1.2396430828598303e+01  1.7112107126808521e+01  1.0183573194449099e+01  1.0137051687503408e+01  1.0096888942926995e+01  1.0116354036260583e+01  1.7545951604212302e+01  1.0058838438785953e+01  1.0093338825918348e+01  1.0128185299565864e+01  1.4493596425614392e+01  3.0803568023507253e+01  1.0023597117048016e+01  2.1847633466893377e+01  1.0169735383439843e+01  1.0183728954218555e+01  1.0111022293229018e+01  1.0735653527299826e+01  1.0408376897056696e+01  1.0156655660497485e+01  1.0342687534860177e+01  1.3926058008058924e+01  1.0026305065661955e+01  1.0212697001768891e+01  1.0116707529789284e+01  1.0234192727531116e+01  1.0057828826461709e+01  1.2278954591987519e+01  1.2328956254892757e+01  1.0237129268533215e+01  1.1784361660697339e+01  1.1144683807391488e+01  1.0198606772973438e+01  1.0004433863337630e+01  1.0077605072490719e+01  1.0119969328403378e+01  1.1391083945843150e+01  1.0051379503231242e+01  1.0041335929396213e+01  1.0279343336254508e+01  1.0061265626567083e+01  1.0232451163407323e+01  1.0195717533301622e+01  1.4079938591380721e+01  1.0441859252028291e+01  1.0153964284972290e+01  1.0040911348010093e+01  1.0839828979593305e+01  1.0805945055458478e+01  1.0499019953890896e+01  1.0479941093656258e+01  1.0105833870935566e+01  1.0103155557382847e+01  1.0197253294085636e+01  1.0031666339956772e+01  1.1475050659017027e+01  1.0800326558806539e+01  1.0619519802648364e+01  1.0085381964919737e+01  1.0005476760077856e+01  1.6426396076133916e+01  1.0013990318913653e+01  2.2606035581970147e+01  1.0015274888040693e+01  1.0012785886324437e+01  1.0643201328692665e+01  1.0047997712712373e+01  1.4958169131268651e+01  1.0005847185171334e+01  1.2762546820249298e+01  1.0005843921990413e+01  1.0229610295890302e+01  1.3089357729936134e+01  1.0142753300071524e+01  1.0031331304681713e+01  1.0399352697744957e+01  1.0053067188075374e+01  1.0037126951148172e