<?xml version="1.0"?>
<VTKFile type="UnstructuredGrid"  version="0.1"  >
<UnstructuredGrid>
<Piece  NumberOfPoints="2743" NumberOfCells="5270">
<Points>
<DataArray  type="Float64"  NumberOfComponents="3"  format="ascii">-0.12 0.1 0  -0.12 0 0  -0.01986476715483886 0 0  -0.01986476715483886 0.002321858282504599 0  -0.01879385241571817 0.006840402866513377 0  -0.01670975622825873 0.01099017956141612 0  -0.01372483275737467 0.01454747283146098 0  -0.009999999999999995 0.01732050807568877 0  -0.005736064654221804 0.01915979024630978 0  -0.001162896578209515 0.01996616316542536 0  0.003472963553338608 0.01969615506024416 0  0.007921595320783138 0.01836432213760548 0  0.01194317183405572 0.01604246385510088 0  0.01532088886237956 0.01285575219373078 0  0.01787265280646825 0.008975983604009244 0  0.01946089741159648 0.004612317414848803 0  0.02 0 0  0.12 0 0  0.12 0.1 0  0 0.1 0  0.06 0.1 0  -0.06 0.1 0  0.12 0.05 0  0.06999999999999999 0 0  -0.12 0.05 0  -0.06993238357741943 0 0  0.06954545454545454 0.05045454545454546 0  -0.05256818197129183 0.04876858210896794 0  0.03 0.06852793994995832 0  -0.01060230953534651 0.06012868531377026 0  -0.08590602075287224 0.07008722490344668 0  -0.08700383268980955 0.03297312682365156 0  0.09 0.1 0  0.09454951298701297 0.02545048701298702 0  0.04421726329698947 0.02908215157121827 0  -0.03 0.1 0  -0.09 0.1 0  0.03 0.1 0  0.094941534914361 0.0689649209486166 0  -0.045 0.07602120282224097 0  0.0137000972673793 0.04576151173676769 0  -0.04489857536612915 0 0  -0.02795527007175781 0.03755044438085961 0  -0.06241371758055736 0.02479853554667227 0  0.06931814492325854 0.02522317739079102 0  0.0562106357694593 0.07357769546517523 0  -0.09496619178870971 0 0  0.12 0.025 0  0.095 0 0  -0.12 0.025 0  -0.12 0.07500000000000001 0  0.12 0.07500000000000001 0  0.045 0 0  -0.0228302666921874 0.07883391093803507 0  0.09815763663419913 0.04717696422689629 0  0.04642316516164364 0.05216224004895101 0  0.015 0.08426396997497916 0  0.07685335020605615 0.08199579006851358 0  -0.03212624651891543 0.05871373573766032 0  -0.06454151582324234 0.06677080404579981 0  -0.007428983740834363 0.03973215840314246 0  -0.04143162460864844 0.02103341629232999 0  -0.07788632568368571 0.05127672197436213 0  -0.09902623975019198 0.05337871787903269 0  -0.075 0.1 0  -0.1014173577311382 0.0832008292773658 0  0.105 0.1 0  0.008793975861786027 0.06520032249375621 0  -0.003877486809385651 0.08128666365361911 0  0.04056005001669608 0.08426396997497916 0  -0.07890609788649815 0.0162597993618741 0  -0.1010699031813867 0.01892186545593956 0  0.08267954418645374 0.03858457665398622 0  0.08249999999999999 0.01250797385719048 0  0.1070573481575616 0.01294265184243836 0  -0.1072273189424094 0.0375 0  0.05487128127324764 0.0148172916808382 0  -0.07306292723448589 0.08234923187849305 0  0.02604316659281994 0.02760414390118441 0  0.03422315740010771 0.01291039266157378 0  0.02953764603397802 0.05164069645856708 0  0.05711184749668567 0.0394951990120913 0  0.1048403709991175 0.08290422259947053 0  0.07836733468041428 0.06502779237175893 0  -0.015 0.1 0  0.107641636468974 0.05970823073603768 0  0.12 0.03750000000000001 0  -0.07203199631147464 0.0369378911801824 0  -0.05383214135241159 0.01227496304049853 0  -0.12 0.0625 0  -0.105 0.1 0  0.075 0.1 0  0.015 0.1 0  -0.045 0.1 0  0.045 0.1 0  -0.10518488525811 0.06789183644845204 0  -0.04335959578005873 0.03636269925572742 0  -0.05884641539443965 0.08000585119468683 0  -0.02074261661302542 0.04996461834162433 0  -0.02653136512200803 0.0222624586885067 0  -0.08714978711530966 0.08578346506967012 0  -0.03506452979410112 0.08648708658184591 0  -0.04620947545617006 0.0616799095273325 0  0.0006562636529589983 0.05143519384945657 0  0.1057204605480501 0.03475816363918364 0  0.09074280792825767 0.08565566471894244 0  0.005667439598789157 0.03387418246945268 0  -0.03238167126048401 0 0  0.0383080886578613 0.04129238651963005 0  0.08505369180647195 0.05254495235246789 0  -0.1074830958943549 0 0  -0.12 0.0125 0  0.05414542183412842 0.08735675763730583 0  0.04308500944676981 0.07115822817126308 0  0.0649349230807125 0.06320229510900416 0  -0.05637247339858926 0.03632415216907382 0  -0.01542434356580282 0.02929607297537314 0  0.02778002500834804 0.08142901444438948 0  -0.06542774243586742 0.04799884169932159 0  -0.06661544991358234 0.0127173865239021 0  0.08192808295131557 0.02597463862592918 0  0.07006960615839669 0.03783311541884806 0  0.06988230421815755 0.01261762329223161 0  -0.12 0.08750000000000001 0  -0.08244928768306457 0 0  -0.05741547947177429 0 0  -0.03984291085584598 0.04859364585838993 0  0.08249999999999999 0 0  0.12 0.0625 0  -0.12 0.03750000000000001 0  0.12 0.0125 0  0.0325 0 0  0.0575 0 0  0.1075 0 0  0.12 0.08750000000000001 0  0.02042070411167864 0.06034025931465875 0  0.05702213417260474 0.02706267745085339 0  0.0675 0.09013045458016318 0  0.09478643990600856 0.0122865785926504 0  -0.04904630236735645 0.08801060141112049 0  0.02613192868361687 0.0398635327923046 0  -0.09569137037305205 0.04159910065917647 0  0.05140611894455763 0.0628291923813368 0  0.1085809652542695 0.07158881227331852 0  0.05796589338150855 0.05105903259253412 0  0.03841143349411784 0.06054564265388553 0  -0.02947166435407259 0.01113520957350828 0  -0.1102478054683027 0.05625 0  -0.09068017366517905 0.01182794374687028 0  -0.01434600857542353 0.08772663538203848 0  -0.03362945317777148 0.07517582904977035 0  -0.01235387050651601 0.0723330924144738 0  -0.02307888867457602 0.06674121501662693 0  -0.002185408069912574 0.06756456274836646 0  0.0678638500046832 0.07452078468888843 0  0.08597040057425252 0.07558162872540394 0  0.09674588960513322 0.05809991882890109 0  0.1094709655577269 0.04555436451412986 0  0.09473770132491341 0.03658207429318428 0  -0.06454868296360231 0.08970720561340952 0  0.1088432154030167 0.02400081163981114 0  -0.07748216799376378 0.02726807518039781 0  0.0075 0.09213198498748959 0  0.01849963805527029 0.07258270415679953 0  0.0225 0.09213198498748959 0  -0.07477959581424944 0.07129038985899076 0  -0.05389685222033951 0.06954987308797576 0  -0.05952130701477828 0.05712689877479761 0  -0.09084078800149091 0.02274804774342801 0  -0.09837161430440977 0.03085986409994825 0  -0.05131093786741553 0.0263250162658456 0  0.01635618606258252 0.03530907600454269 0  -0.03460613037873773 0.02922068783924693 0  -0.04043226315035484 0.01006625299372829 0  0.08175024910257063 0.09159737271826002 0  -0.09494035380298299 0.06367583527464522 0  -0.0886934906578859 0.04994210372431981 0  -0.02490130542947547 0.09038352188878838 0  0.04417108737523257 0.01793664269923905 0  -0.003940932065510782 0.02996170313966536 0  -0.01783357510351885 0.03997209276407525 0  -0.009556322084365085 0.04984630266759408 0  -0.09566755421412014 0.074271403467777 0  0.0355203970594753 0.02354533265972011 0  0.006555555071563847 0.07647100871020274 0  -0.07937685857812513 0.06175606142440594 0  -0.082228823034201 0.04201720146426499 0  -0.06983948840172999 0.05776693996935201 0  -0.09555085505908593 0.09149315155487603 0  -0.1098516392886323 0.0771584086134595 0  0.0975 0.1 0  0.01159727503865655 0.05556931308228881 0  -0.1115659278883601 0.01875 0  -0.1012246438415323 0.008426566493923617 0  0.01474516449273796 0.0255393740673827 0  0.08779480154260712 0.06219573447921576 0  -0.1125 0.1 0  -0.109677715301956 0.0898066291811736 0  0.1125 0.1 0  -0.1076436806656361 0.02771938223489072 0  -0.1109003748179492 0.009075404417277109 0  -0.03013785075543634 0.04712089514258909 0  -0.004952464847218618 0.0912677883600678 0  -0.1065795284902037 0.04722264329381553 0  0.04842831953664987 0.07898377417315099 0  0.03252098192319938 0.09028046125939154 0  0.02476218534733019 0.01628634550873906 0  0.04791904264346727 0.04258131505029045 0  0.06144185941573184 0.08140605316446399 0  0.1108170457022867 0.09049022742137205 0  -0.08249999999999999 0.1 0  -0.07849279483093181 0.09068500987040669 0  0.09901040145429967 0.0905247702494426 0  -0.07619083563024201 0.007152163970009891 0  -0.03784209605914159 0.06649148111429766 0  0.03557615988040569 0.07650767001919569 0  0.03302905362294855 0.03368357951329398 0  0.001528049998133968 0.0421884697145129 0  -0.06677219502603519 0.0755735126223121 0  -0.07078299185927128 0.02093806600642789 0  0.07624698700554428 0.01898789084580359 0  0.0425071772133816 0.008872273040118464 0  0.06222675218673776 0.01983691994242202 0  0.05125 0.006533019494560529 0  -0.08112674022156063 0.07793832028046994 0  0.0894563302875119 0.04461415956113914 0  0.07600555403016987 0.04440122631805228 0  0.1011730931788228 0.01956623203424818 0  0.08875791189114002 0.01876216216110217 0  0.07625 0.006253986928595243 0  0.10125 0.00625378014893175 0  0.06159289116562519 0.008367939956509781 0  0.1133219866490167 0.006678013350983326 0  0.12 0.03125 0  0.08875 0 0  0.09447377394606553 0.07772073910541109 0  0.1125347363168419 0.07917181005820358 0  -0.0360489221788708 0.04088174671649498 0  0.07238835401788725 0.0586903785336876 0  0.07770534388963661 0.0735202678075017 0  -0.02352204721963873 0.05812853133009549 0  0.02771469012026706 0.007208889738796465 0  0.06289457418076626 0.0332368862735679 0  0.02997504279709136 0.060078672135782 0  0.0379740367310045 0.0521076669766706 0  0.02209772318747019 0.04741115745969623 0  -0.0375 0.1 0  -0.04152152214341864 0.09214855581173653 0  0.07670804270236463 0.03261307516989712 0  0.08846339346732941 0.03112076208171376 0  0.06426407185079112 0.0439136177978413 0  0.05037140838704721 0.03465168226171754 0  -0.1136136594712047 0.0428084044537857 0  -0.113526383098718 0.06949936267301912 0  -0.002312773411525084 0.05922711625796673 0  0.04612867834591947 0.09118715625326625 0  0.0525 0.1 0  -0.0525 0.1 0  -0.05642436013397981 0.09226832717651308 0  0.12 0.01875 0  0.0375 0.1 0  -0.1021974954105155 0.06059626541185022 0  0.04989633308677061 0.02348577305550612 0  -0.12 0.03125 0  0.003928287502683688 0.08448841352572942 0  0.1030125400079595 0.05335714910633224 0  0.1025673057510353 0.0660868
[...]
<PointData  Scalars="f_29"> 
<DataArray  type="Float64"  Name="f_29"  format="ascii">1.0006993005074726e+01  1.0073122886507495e+01  5.0000000000000000e+01  4.9999999999999993e+01  5.0000000000000000e+01  5.0000000000000000e+01  5.0000000000000000e+01  5.0000000000000000e+01  5.0000000000000000e+01  5.0000000000000000e+01  5.0000000000000000e+01  5.0000000000000000e+01  5.0000000000000000e+01  5.0000000000000000e+01  5.0000000000000000e+01  5.0000000000000000e+01  5.0000000000000000e+01  1.0073529563235807e+01  1.0006979286469782e+01  1.0364603989662934e+01  1.0096288637261656e+01  1.0096134600018541e+01  1.0032221072549243e+01  1.1766114542631422e+01  1.0032338324681033e+01  1.1772942683415945e+01  1.0545632217765528e+01  1.1564637481721752e+01  1.1256414503203521e+01  1.3331509223530926e+01  1.0079373987569653e+01  1.0316278389152634e+01  1.0022327367013363e+01  1.0219647596383830e+01  1.5757778077210839e+01  1.0257019664568256e+01  1.0022300151903055e+01  1.0257211198526855e+01  1.0047752310423391e+01  1.0465182160154963e+01  1.8052052919110075e+01  1.9651187497706008e+01  1.8548047781216894e+01  1.2163879728399458e+01  1.1342556462236839e+01  1.0333867119766060e+01  1.0275652334444157e+01  1.0059363579254020e+01  1.0275611495138772e+01  1.0059248237159112e+01  1.0013069909988637e+01  1.0013048807046692e+01  1.9593606476950136e+01  1.0752841475218098e+01  1.0092856192217679e+01  1.1789721119266099e+01  1.0603667255269698e+01  1.0074480830185223e+01  1.2198465719876630e+01  1.0321987668752802e+01  2.2723831729558796e+01  1.8732464742340625e+01  1.0310317901101133e+01  1.0070480164315631e+01  1.0048432508448084e+01  1.0017829279739301e+01  1.0010353937833592e+01  1.2397696081276191e+01  1.0806576361806368e+01  1.0331461651770171e+01  1.0813551788327592e+01  1.0152557252503607e+01  1.0361530693774364e+01  1.0657978405959943e+01  1.0110219316328731e+01  1.0069892237979824e+01  1.4425282983356087e+01  1.0089841943098472e+01  2.4757479709720563e+01  2.6014523663444585e+01  1.3694725926076980e+01  1.1839961163096882e+01  1.0015121239136485e+01  1.0159955188718559e+01  1.0331778378257349e+01  1.0033222707434589e+01  1.0045830918377662e+01  1.0789368547609502e+01  1.4945265702676650e+01  1.0020977690337471e+01  1.0010336719124753e+01  1.0048399544857164e+01  1.0333342847121575e+01  1.0168376470020307e+01  1.0168569668059883e+01  1.0027370397161324e+01  1.4498811533060852e+01  1.0204218436156394e+01  1.5324460631303280e+01  2.7892711060547569e+01  1.0035941222790742e+01  1.0347437754686894e+01  1.1056695567757616e+01  1.6340331200846357e+01  1.0082069862077629e+01  1.0029389440736756e+01  2.8226351684333213e+01  3.0380754360893242e+01  1.4587510914109858e+01  1.0183804959855310e+01  1.0114254920734751e+01  1.0069249832328394e+01  1.0170537044202600e+01  1.0678452977700465e+01  1.0381580581219859e+01  1.2179604189294936e+01  2.9543851293831594e+01  1.0569123892534337e+01  1.0777921272077746e+01  1.2063501677803830e+01  1.0542018633963036e+01  1.0872373993465262e+01  1.1642663312403903e+01  1.0008483049040633e+01  1.0707528769766785e+01  1.4260216421369286e+01  1.2936336434739326e+01  1.0707101039594749e+01  1.0020962386104140e+01  1.0045945137184006e+01  1.0069683689052063e+01  3.0278578588745926e+01  1.4239904434925997e+01  1.0113835003126388e+01  1.0008474634916590e+01  1.2762095308444398e+01  1.2876112964697990e+01  1.0084271373280279e+01  1.0262398321404135e+01  1.0202223839426170e+01  1.8117794270976514e+01  1.0132385059309435e+01  1.0780405286019601e+01  1.0019748042422128e+01  1.1042868253627192e+01  1.1566295813291834e+01  3.1415864279945104e+01  1.0033234864389307e+01  1.0358994468482406e+01  1.0495470959853451e+01  1.0728876539769175e+01  1.1401601047760893e+01  1.1699206952454345e+01  1.2106914232393052e+01  1.0177410682422051e+01  1.0060502098869051e+01  1.0067815870614229e+01  1.0049265176399588e+01  1.0164230542840931e+01  1.0098221899092719e+01  1.0085418435283842e+01  1.0722749091237478e+01  1.0424722870318554e+01  1.1253684663031573e+01  1.0354464497705496e+01  1.0144035199639792e+01  1.0470008471754513e+01  1.0706080022178421e+01  1.0302131727174046e+01  1.0147356381228073e+01  1.4175840033771456e+01  2.3926689151871685e+01  1.9419885031192887e+01  2.1772058089000137e+01  1.0039253785859923e+01  1.0060315318759596e+01  1.0160483683678139e+01  1.0364814015938013e+01  1.8098134407777469e+01  3.3051448375937667e+01  2.0360008774525895e+01  1.6646211982639496e+01  1.0036110558140848e+01  2.1141398143130289e+01  1.1104366183914285e+01  1.0176817323441137e+01  1.0332874288535107e+01  1.0379962533616748e+01  1.0018676912218181e+01  1.0015005094774519e+01  1.0014998209847722e+01  1.4456058715413624e+01  1.0080133153261215e+01  1.0169150889679333e+01  3.3999064244963868e+01  1.0101758171267770e+01  1.0007792304686602e+01  1.0009802891350329e+01  1.0007796092363863e+01  1.0085358068600236e+01  1.0091291840976025e+01  1.4707232241642314e+01  1.0446769723603776e+01  1.0054566967956507e+01  1.0340637145718418e+01  1.0308217010312475e+01  3.3793909826034962e+01  1.2685181682968626e+01  1.0168083167816556e+01  1.0009279401026022e+01  1.0033185203454810e+01  1.0047950232601192e+01  1.0015919753162581e+01  1.1097823338063133e+01  1.1106603356273782e+01  1.0627474999278659e+01  1.8360745852363909e+01  2.1386186292409917e+01  1.0176817909088035e+01  1.1339882485139722e+01  1.0943116620544794e+01  2.0578879323669369e+01  1.2462052518343310e+01  1.6257523646963186e+01  1.0071884875495003e+01  1.0184246699771290e+01  1.0462987920817667e+01  1.0150558324835252e+01  1.0379754242966442e+01  1.1100555079286300e+01  1.0170963422623753e+01  1.3076407814722824e+01  1.0082892227257531e+01  1.0052604929606847e+01  1.0441477537757025e+01  1.0033110411738647e+01  1.0012576884931034e+01  1.5179791604450561e+01  1.0313345761115899e+01  1.0108619058196052e+01  1.2964654568237060e+01  3.5173182240066055e+01  1.1625634867340864e+01  1.2171287568282498e+01  1.2613413768568160e+01  1.5995577810782786e+01  1.0211892785297737e+01  1.0220340279456730e+01  1.0661410086950772e+01  1.0299267882399784e+01  1.0997359560434694e+01  1.3294284210511018e+01  1.0044838841219850e+01  1.0017848407180029e+01  1.3758979861540068e+01  1.0195689838923087e+01  1.0129483894081682e+01  1.0129095023858515e+01  1.0127571970309408e+01  1.0064973731138721e+01  1.0212645332946611e+01  1.0043658249211603e+01  1.4964431428548473e+01  1.0052726351569371e+01  1.0654190501663301e+01  1.0054696266605607e+01  1.0034089846198579e+01  1.0026125768127548e+01  1.2765103524386411e+01  1.3365061170691224e+01  1.0105252394653398e+01  1.1192883867832361e+01  1.0312619994020080e+01  2.4460168985722060e+01  1.0815497948853110e+01  1.0507198531302448e+01  1.0511938545978895e+01  1.1204242986040875e+01  1.6460339198195459e+01  1.2757001362757201e+01  1.0109104310470165e+01  1.0026742658483093e+01  2.4310765873008581e+01  1.0637096107878024e+01  1.7503095193602725e+01  1.3006627036994013e+01  1.7775266155368513e+01  1.0097086821152171e+01  1.0033748121145733e+01  1.0298685871911607e+01  1.0402981191953179e+01  1.0298890836826276e+01  1.0355288649409953e+01  1.0069201723161862e+01  1.0069261507205370e+01  1.0033074281281868e+01  1.0015026146982278e+01  1.0355927970963563e+01  1.0045057921100438e+01  1.0030642652933590e+01  3.5749896567905665e+01  3.6485397390508524e+01  1.1705645528368327e+01  1.1469272472348301e+01  1.0056423843569297e+01  1.0063424917436306e+01  1.1486587592107901e+01  1.0016563569081436e+01  1.0021391635171707e+01  1.0007373216518729e+01  1.1674684619740837e+01  1.1999577036523164e+01  1.0136588559275987e+01  1.0079650772562914e+01  1.0026608222812307e+01  1.0010447587973507e+01  1.0022194491430509e+01  1.0174992775611420e+01  1.0282223019759222e+01  1.0486800455417882e+01  1.0445118128077215e+01  1.0441356130995104e+01  1.0331367153274888e+01  1.0231372945951511e+01  1.0736809182430148e+01  1.4211254066888090e+01  1.0045851338928742e+01  1.0021773120701280e+01  1.4532060113210909e+01  3.6997843859155942e+01  2.1935278333843932e+01  1.0060930444118428e+01  1.0126524320460325e+01  1.4471813950902902e+01  1.7120797251210870e+01  1.0013367819313183e+01  1.6884824926262755e+01  1.0058934162698801e+01  1.0285561281831523e+01  1.0077346332106957e+01  1.0176810672290770e+01  1.0119845577889247e+01  1.0213763896190859e+01  1.2609456671569179e+01  1.0445955493657284e+01  1.1000800752312283e+01  3.7459314721524457e+01  1.0591072842605060e+01  1.0644050654800390e+01  1.0436436708284315e+01  1.0109148171114153e+01  1.0118055138018091e+01  1.1273660376934167e+01  1.0351367851343502e+01  1.4295109327664044e+01  1.0037033926919012e+01  1.0023572533726325e+01  1.0247023289406560e+01  1.0523704920999220e+01  3.8044304010102671e+01  1.0473068281133701e+01  1.0021072988765248e+01  1.5093328544839506e+01  1.2882098408287893e+01  1.0304331093261879e+01  1.0092469651069003e+01  1.1060186141319768e+01  1.1087271558571167e+01  1.8713512634265165e+01  1.0226728647500570e+01  1.0278036297927544e+01  1.6913392606474662e+01  1.9226061240202199e+01  2.6668279075023918e+01  2.4061687331308399e+01  2.5898670996381675e+01  1.1776066728380021e+01  1.0547595986959674e+01  1.0932966689758455e+01  1.0383463768667962e+01  1.4498525004627227e+01  1.0045988167046875e+01  1.0234800168519227e+01  1.0007362282640482e+01  1.0979637168750282e+01  2.4955616735890001e+01  1.1676610922856296e+01  1.1788082997603107e+01  1.0952864092184535e+01  1.0738450996189787e+01  1.0439534012516875e+01  1.0464247588732716e+01  1.0481836098394814e+01  3.8844313626537392e+01  1.0059012474672242e+01  1.2945613461591917e+01  1.0182351923304031e+01  2.6393935357303864e+01  2.7401380945786588e+01  1.9167925072670464e+01  1.0473576719016929e+01  1.1023780345099004e+01  1.0082793531614811e+01  1.0072351403228565e+01  1.3854687839882112e+01  1.2689007887175041e+01  2.9465553108312047e+01  1.4218220872216090e+01  1.1289825593438762e+01  1.0134863318207657e+01  1.0284811607087020e+01  1.0293499795702171e+01  1.0176431048297466e+01  1.0159564217012946e+01  1.0067304073936928e+01  1.1048856446172861e+01  1.0846501557436206e+01  1.5202332636094162e+01  1.1044897847934264e+01  1.1636880905044858e+01  1.1738065185070770e+01  1.3030098935417708e+01  1.1888913829601211e+01  1.2879420832252110e+01  1.3235024546006514e+01  1.0343585095708210e+01  1.0218448811888596e+01  1.0969069160134406e+01  1.1516526865824064e+01  2.4164841218682049e+01  1.0173887063904630e+01  1.1126856670738734e+01  1.6467530735756810e+01  1.0600756528744318e+01  1.0016640053307245e+01  3.8663101758338748e+01  1.0072638585814095e+01  1.0064743114072714e+01  1.0010338260422705e+01  1.0083289653597344e+01  1.2753444734515002e+01  1.1123053176698935e+01  1.6431603889247782e+01  1.0038813883591066e+01  1.0026305769746244e+01  1.0174103168089339e+01  1.0010382039930006e+01  1.0038850682453246e+01  1.0484408344356122e+01  1.0471088798395545e+01  1.0237519093873710e+01  1.2396451103256080e+01  1.3715709376263659e+01  1.1927081705058386e+01  1.0240299015945739e+01  1.0693790233980932e+01  1.0061181654061128e+01  1.1943923855686005e+01  2.6848598927220820e+01  1.0347154708147617e+01  1.1148160196218770e+01  1.0973205025329765e+01  1.2169148475462167e+01  1.0593931353532446e+01  1.0524212316152399e+01  1.0166187249634856e+01  1.0280895662176778e+01  1.0013296089389351e+01  2.0791938589410666e+01  1.0083991564155109e+01  1.0107579744021972e+01  1.0131743248567899e+01  1.2833792149719256e+01  1.0236519610931214e+01  1.1435043952408675e+01  1.0026207482884447e+01  1.7931629561409288e+01  1.1726452475858229e+01  1.0113499033444310e+01  1.0722363890765696e+01  1.6172206117496764e+01  1.0703453920299454e+01  1.0017015339454121e+01  1.0015732308068538e+01  1.0101586731842669e+01  1.0747422442033704e+01  1.5364965471124076e+01  1.0447533543763200e+01  1.0576710054919728e+01  1.0012277619443001e+01  1.0028347080552026e+01  1.0673835844129778e+01  1.7557354421902915e+01  1.0095382247748422e+01  1.0076581085589728e+01  1.0103577086962385e+01  1.0114973696001984e+01  1.0098205786992885e+01  1.0123245110479383e+01  3.9162854333956894e+01  3.9047384129335569e+01  1.0780830284355680e+01  1.1458008930466068e+01  1.0797554985078683e+01  1.1330178717852734e+01  1.0061610383456252e+01  1.0048903365979854e+01  1.0240386839255779e+01  1.0221790568122479e+01  1.0145405405271749e+01  1.3041147948485527e+01  1.0605449249197070e+01  1.0031866753848711e+01  1.0011141413690563e+01  1.0037234485581982e+01  1.0063469566253064e+01  2.1353082534877132e+01  1.1139594749591764e+01  1.0707891893505016e+01  1.0552908900563443e+01  1.2019670909874881e+01  3.0486035370658655e+01  1.2529087714946844e+01  1.0085851481520958e+01  1.0082530652060001e+01  1.5987331050160805e+01  1.0009110261503904e+01  1.0007760473484995e+01  1.0012734928314483e+01  1.0102671518271594e+01  1.0124062611587638e+01  1.0098883905082793e+01  1.0215760986729455e+01  1.3775549766258726e+01  1.0060827871299129e+01  1.0009064868853246e+01  1.0064402557905236e+01  1.0042617472974936e+01  1.0049931207928106e+01  2.1595808874203996e+01  1.6890691774470902e+01  1.0110633545115572e+01  1.0137134577408730e+01  1.0199397850682443e+01  1.0774221713350263e+01  1.0069913163904920e+01  1.0289512267751077e+01  1.0046615979468328e+01  2.0775120145614352e+01  1.0031354230926111e+01  2.0838093061633298e+01  1.0077100394702375e+01  1.0432840107670117e+01  2.9798392270258528e+01  1.3205749404223683e+01  1.0140330474407994e+01  1.0892893931642050e+01  1.0051526181963673e+01  1.0044522948578404e+01  1.6367048999841550e+01  2.5445516522728052e+01  2.0297385500502340e+01  2.1507584158045550e+01  1.0012735745001676e+01  1.0079761974795661e+01  1.2113304370151560e+01  1.0202531883507078e+01  1.0498393523480376e+01  1.0139062111002552e+01  1.0012217126443520e+01  1.0240607567437230e+01  1.5803075704297431e+01  1.0253651176773804e+01  1.0291939636065683e+01  1.6529104148720517e+01  1.0505879649676791e+01  1.0154339818283258e+01  1.0606404147375725e+01  1.0446722045195557e+01  1.0505775720271782e+01  1.0386124442252603e+01  1.0333582370316734e+01  1.0292760595908010e+01  1.0364322480798142e+01  1.6467327973125180e+01  1.3697514481049838e+01  2.1080392903103604e+01  1.0032685424843173e+01  1.1210985464855208e+01  1.0917427223978111e+01  1.0064631561997146e+01  1.1416263667663037e+01  3.0435966175703285e+01  1.0084640287918823e+01  1.0198079560510456e+01  2.3069889972095027e+01  1.3686605880967365e+01  1.0052326737211109e+01  1.0046744604954009e+01  1.0025715629777750e+01  1.0117255167758914e+01  1.0156051946927860e+01  1.0237682040452224e+01  1.0008693826799220e+01  1.0068461890242434e+01  1.1597912543268023e+01  1.0406506633864668e+01  1.4370275184433417e+01  1.0499175659905003e+01  1.0075720851114360e+01  1.0231434242835238e+01  1.0138630600934331e+01  1.0580908198121572e+01  1.0021455713746255e+01  1.1169021649858305e+01  1.0039560764773407e+01  2.0889699430048726e+01  1.2059409851387128e+01  1.7500667252588919e+01  1.0071347339209250e+01  1.0020441994748403e+01  2.7267249750394420e+01  1.0025369539458227e+01  1.4735099077750389e+01  2.9129634886713191e+01  4.0507879384718677e+01  2.1353934541825634e+01  1.0116791908507476e+01  1.0335505783067376e+01  1.0045167682555377e+01  1.0183576397139138e+01  1.0862213971755846e+01  1.0025793352254464e+01  1.0018163495464290e+01  1.0018303757532907e+01  1.0021031055453518e+01  1.1028976852898266e+01  1.0690464517442912e+01  1.0010092080491519e+01  1.0037700079725338e+01  1.1892702826766209e+01  3.1919338521557794e+01  2.1964822998676389e+01  2.8354455255981748e+01  1.0056345290481826e+01  1.0460499696307828e+01  4.1033552567946515e+01  4.0157801260995342e+01  1.6019075267538117e+01  1.0362384198875557e+01  1.3393689733759329e+01  1.6065586900047858e+01  1.0053489901659932e+01  1.0502621820573019e+01  1.0065480363039226e+01  1.0042286018872494e+01  4.0654146445089253e+01  1.0152437080120844e+01  1.0050564521011417e+01  1.0071554388516965e+01  1.0051657146343997e+01  1.2963940324854999e+01  1.0263966378227082e+01  1.0126401787700647e+01  2.5369739786179224e+01  1.6420070071973530e+01  1.4089523080655303e+01  1.0262283223240793e+01  1.2309309894968342e+01  1.0048653190180223e+01  1.2304129594603598e+01  1.1032554222002020e+01  1.0007190452948482e+01  1.0007728498027447e+01  1.1099362658301944e+01  1.0360107276885151e+01  1.0026471943873096e+01  1.0155065839972803e+01  1.1643295074117850e+01  1.0094791518139587e+01  1.0121033226503775e+01  1.3552551342233494e+01  1.3532922088402351e+01  1.0808178466645749e+01  1.0075408800936684e+01  1.0008710985286745e+01  1.0078227545075627e+01  1.1051194467834184e+01  1.0016533647457024e+01  2.2427388596900734e+01  4.0288312189364305e+01  1.0265455114114914e+01  1.0021386031498709e+01  3.2989349675167759e+01  1.0323071143016973e+01  1.8396040711577470e+01  4.1290685256015770e+01  1.3048234946187872e+01  2.4535611304881360e+01  1.0030245094801611e+01  1.0111034576395561e+01  1.2105160090790678e+01  1.0024281307547277e+01  1.0944272741534256e+01  1.2206451671375472e+01  1.0479507037886926e+01  1.0327823366575776e+01  1.0329630990112822e+01  1.0151007136837869e+01  1.0237896562851532e+01  1.4065391691828451e+01  1.1409319265352117e+01  1.0141944316519316e+01  1.5281277183567088e+01  3.1068419457801259e+01  1.1106686724655905e+01  4.2394992726393170e+01  1.0596355612793925e+01  1.2591323228174101e+01  1.1106539742565925e+01  1.2196458936307808e+01  1.2513141670916411e+01  1.2210610189106214e+01  1.5289056444767880e+01  1.0372875502376768e+01  2.4608475266864840e+01  2.1677328626314015e+01  1.0457931244788334e+01  1.0019230210843858e+01  1.0038076155227751e+01  1.0396499577223489e+01  1.0254527603425238e+01  1.0600246325105559e+01  1.0453689785199833e+01  1.0648780532623384e+01  1.1049391186322445e+01  1.1571917551935892e+01  1.1595073045557220e+01  1.8744739319413647e+01  1.0065581968877611e+01  1.0087712851279591e+01  1.4383851016739357e+01  1.0402844082932416e+01  1.3455297969282599e+01  1.0427946892434008e+01  1.0037287595772302e+01  1.2420966290017498e+01  1.1425594227755948e+01  1.0859978388359552e+01  1.0235839238135801e+01  1.9242058419449165e+01  1.0322202553146196e+01  1.3550227596728350e+01  1.9089715372913354e+01  1.0380799683022344e+01  1.0277418590489537e+01  1.0203935175595499e+01  1.0239582571822297e+01  1.9565601291679187e+01  1.0128655509848798e+01  1.0195328849652375e+01  1.0260553653084562e+01  1.6127302490966816e+01  3.2711304835027093e+01  1.0057979617568968e+01  2.4059355690636067e+01  1.0335681396625686e+01  1.0360611574283014e+01  1.0228861219592757e+01  1.1251577252535132e+01  1.0740161157031094e+01  1.0312717165328539e+01  1.0634427944437132e+01  1.5450795722254954e+01  1.0064215804086730e+01  1.0427206360937969e+01  1.0241648110719012e+01  1.0466335069670816e+01  1.0127881789855707e+01  1.3395009037251516e+01  1.3461060778981480e+01  1.0454132160931659e+01  1.2738852019686728e+01  1.1852488211894318e+01  1.0387077656629272e+01  1.0012390790671578e+01  1.0171297016681763e+01  1.0252504971708261e+01  1.2201363645384930e+01  1.0115006285686855e+01  1.0095585811918852e+01  1.0526643908864974e+01  1.0135066034920209e+01  1.0445846502449442e+01  1.0381797418464567e+01  1.5634554936210684e+01  1.0794296871663056e+01  1.0308074168329238e+01  1.0094894300389779e+01  1.1407936606602961e+01  1.1357647643686363e+01  1.0885656836746190e+01  1.0855206951295713e+01  1.0220142507942210e+01  1.0215099646672462e+01  1.0384909774835418e+01  1.0076126482730178e+01  1.2320757479261781e+01  1.1349526146087179e+01  1.1074083746889094e+01  1.0190361394378025e+01  1.0015037912183679e+01  1.8331069637549280e+01  1.0034846597551301e+01  2.4824228217254561e+01  1.0037675259140752e+01  1.0032208464844354e+01  1.1111621959753739e+01  1.0112131337712139e+01  1.6668149463052242e+01  1.0015882870214440e+01  1.4017963740925875e+01  1.0016030856351394e+01  1.0441531784799965e+01  1.4427027264688080e+01  1.0287574585202155e+01  1.0073866134591146e+01  1.0726386763335546e+01  1.0117190935211998e+01  1.0084710166425992e