<?xml version="1.0"?>
<VTKFile type="UnstructuredGrid"  version="0.1"  >
<UnstructuredGrid>
<Piece  NumberOfPoints="2743" NumberOfCells="5270">
<Points>
<DataArray  type="Float64"  NumberOfComponents="3"  format="ascii">-0.12 0.1 0  -0.12 0 0  -0.01986476715483886 0 0  -0.01986476715483886 0.002321858282504599 0  -0.01879385241571817 0.006840402866513377 0  -0.01670975622825873 0.01099017956141612 0  -0.01372483275737467 0.01454747283146098 0  -0.009999999999999995 0.01732050807568877 0  -0.005736064654221804 0.01915979024630978 0  -0.001162896578209515 0.01996616316542536 0  0.003472963553338608 0.01969615506024416 0  0.007921595320783138 0.01836432213760548 0  0.01194317183405572 0.01604246385510088 0  0.01532088886237956 0.01285575219373078 0  0.01787265280646825 0.008975983604009244 0  0.01946089741159648 0.004612317414848803 0  0.02 0 0  0.12 0 0  0.12 0.1 0  0 0.1 0  0.06 0.1 0  -0.06 0.1 0  0.12 0.05 0  0.06999999999999999 0 0  -0.12 0.05 0  -0.06993238357741943 0 0  0.06954545454545454 0.05045454545454546 0  -0.05256818197129183 0.04876858210896794 0  0.03 0.06852793994995832 0  -0.01060230953534651 0.06012868531377026 0  -0.08590602075287224 0.07008722490344668 0  -0.08700383268980955 0.03297312682365156 0  0.09 0.1 0  0.09454951298701297 0.02545048701298702 0  0.04421726329698947 0.02908215157121827 0  -0.03 0.1 0  -0.09 0.1 0  0.03 0.1 0  0.094941534914361 0.0689649209486166 0  -0.045 0.07602120282224097 0  0.0137000972673793 0.04576151173676769 0  -0.04489857536612915 0 0  -0.02795527007175781 0.03755044438085961 0  -0.06241371758055736 0.02479853554667227 0  0.06931814492325854 0.02522317739079102 0  0.0562106357694593 0.07357769546517523 0  -0.09496619178870971 0 0  0.12 0.025 0  0.095 0 0  -0.12 0.025 0  -0.12 0.07500000000000001 0  0.12 0.07500000000000001 0  0.045 0 0  -0.0228302666921874 0.07883391093803507 0  0.09815763663419913 0.04717696422689629 0  0.04642316516164364 0.05216224004895101 0  0.015 0.08426396997497916 0  0.07685335020605615 0.08199579006851358 0  -0.03212624651891543 0.05871373573766032 0  -0.06454151582324234 0.06677080404579981 0  -0.007428983740834363 0.03973215840314246 0  -0.04143162460864844 0.02103341629232999 0  -0.07788632568368571 0.05127672197436213 0  -0.09902623975019198 0.05337871787903269 0  -0.075 0.1 0  -0.1014173577311382 0.0832008292773658 0  0.105 0.1 0  0.008793975861786027 0.06520032249375621 0  -0.003877486809385651 0.08128666365361911 0  0.04056005001669608 0.08426396997497916 0  -0.07890609788649815 0.0162597993618741 0  -0.1010699031813867 0.01892186545593956 0  0.08267954418645374 0.03858457665398622 0  0.08249999999999999 0.01250797385719048 0  0.1070573481575616 0.01294265184243836 0  -0.1072273189424094 0.0375 0  0.05487128127324764 0.0148172916808382 0  -0.07306292723448589 0.08234923187849305 0  0.02604316659281994 0.02760414390118441 0  0.03422315740010771 0.01291039266157378 0  0.02953764603397802 0.05164069645856708 0  0.05711184749668567 0.0394951990120913 0  0.1048403709991175 0.08290422259947053 0  0.07836733468041428 0.06502779237175893 0  -0.015 0.1 0  0.107641636468974 0.05970823073603768 0  0.12 0.03750000000000001 0  -0.07203199631147464 0.0369378911801824 0  -0.05383214135241159 0.01227496304049853 0  -0.12 0.0625 0  -0.105 0.1 0  0.075 0.1 0  0.015 0.1 0  -0.045 0.1 0  0.045 0.1 0  -0.10518488525811 0.06789183644845204 0  -0.04335959578005873 0.03636269925572742 0  -0.05884641539443965 0.08000585119468683 0  -0.02074261661302542 0.04996461834162433 0  -0.02653136512200803 0.0222624586885067 0  -0.08714978711530966 0.08578346506967012 0  -0.03506452979410112 0.08648708658184591 0  -0.04620947545617006 0.0616799095273325 0  0.0006562636529589983 0.05143519384945657 0  0.1057204605480501 0.03475816363918364 0  0.09074280792825767 0.08565566471894244 0  0.005667439598789157 0.03387418246945268 0  -0.03238167126048401 0 0  0.0383080886578613 0.04129238651963005 0  0.08505369180647195 0.05254495235246789 0  -0.1074830958943549 0 0  -0.12 0.0125 0  0.05414542183412842 0.08735675763730583 0  0.04308500944676981 0.07115822817126308 0  0.0649349230807125 0.06320229510900416 0  -0.05637247339858926 0.03632415216907382 0  -0.01542434356580282 0.02929607297537314 0  0.02778002500834804 0.08142901444438948 0  -0.06542774243586742 0.04799884169932159 0  -0.06661544991358234 0.0127173865239021 0  0.08192808295131557 0.02597463862592918 0  0.07006960615839669 0.03783311541884806 0  0.06988230421815755 0.01261762329223161 0  -0.12 0.08750000000000001 0  -0.08244928768306457 0 0  -0.05741547947177429 0 0  -0.03984291085584598 0.04859364585838993 0  0.08249999999999999 0 0  0.12 0.0625 0  -0.12 0.03750000000000001 0  0.12 0.0125 0  0.0325 0 0  0.0575 0 0  0.1075 0 0  0.12 0.08750000000000001 0  0.02042070411167864 0.06034025931465875 0  0.05702213417260474 0.02706267745085339 0  0.0675 0.09013045458016318 0  0.09478643990600856 0.0122865785926504 0  -0.04904630236735645 0.08801060141112049 0  0.02613192868361687 0.0398635327923046 0  -0.09569137037305205 0.04159910065917647 0  0.05140611894455763 0.0628291923813368 0  0.1085809652542695 0.07158881227331852 0  0.05796589338150855 0.05105903259253412 0  0.03841143349411784 0.06054564265388553 0  -0.02947166435407259 0.01113520957350828 0  -0.1102478054683027 0.05625 0  -0.09068017366517905 0.01182794374687028 0  -0.01434600857542353 0.08772663538203848 0  -0.03362945317777148 0.07517582904977035 0  -0.01235387050651601 0.0723330924144738 0  -0.02307888867457602 0.06674121501662693 0  -0.002185408069912574 0.06756456274836646 0  0.0678638500046832 0.07452078468888843 0  0.08597040057425252 0.07558162872540394 0  0.09674588960513322 0.05809991882890109 0  0.1094709655577269 0.04555436451412986 0  0.09473770132491341 0.03658207429318428 0  -0.06454868296360231 0.08970720561340952 0  0.1088432154030167 0.02400081163981114 0  -0.07748216799376378 0.02726807518039781 0  0.0075 0.09213198498748959 0  0.01849963805527029 0.07258270415679953 0  0.0225 0.09213198498748959 0  -0.07477959581424944 0.07129038985899076 0  -0.05389685222033951 0.06954987308797576 0  -0.05952130701477828 0.05712689877479761 0  -0.09084078800149091 0.02274804774342801 0  -0.09837161430440977 0.03085986409994825 0  -0.05131093786741553 0.0263250162658456 0  0.01635618606258252 0.03530907600454269 0  -0.03460613037873773 0.02922068783924693 0  -0.04043226315035484 0.01006625299372829 0  0.08175024910257063 0.09159737271826002 0  -0.09494035380298299 0.06367583527464522 0  -0.0886934906578859 0.04994210372431981 0  -0.02490130542947547 0.09038352188878838 0  0.04417108737523257 0.01793664269923905 0  -0.003940932065510782 0.02996170313966536 0  -0.01783357510351885 0.03997209276407525 0  -0.009556322084365085 0.04984630266759408 0  -0.09566755421412014 0.074271403467777 0  0.0355203970594753 0.02354533265972011 0  0.006555555071563847 0.07647100871020274 0  -0.07937685857812513 0.06175606142440594 0  -0.082228823034201 0.04201720146426499 0  -0.06983948840172999 0.05776693996935201 0  -0.09555085505908593 0.09149315155487603 0  -0.1098516392886323 0.0771584086134595 0  0.0975 0.1 0  0.01159727503865655 0.05556931308228881 0  -0.1115659278883601 0.01875 0  -0.1012246438415323 0.008426566493923617 0  0.01474516449273796 0.0255393740673827 0  0.08779480154260712 0.06219573447921576 0  -0.1125 0.1 0  -0.109677715301956 0.0898066291811736 0  0.1125 0.1 0  -0.1076436806656361 0.02771938223489072 0  -0.1109003748179492 0.009075404417277109 0  -0.03013785075543634 0.04712089514258909 0  -0.004952464847218618 0.0912677883600678 0  -0.1065795284902037 0.04722264329381553 0  0.04842831953664987 0.07898377417315099 0  0.03252098192319938 0.09028046125939154 0  0.02476218534733019 0.01628634550873906 0  0.04791904264346727 0.04258131505029045 0  0.06144185941573184 0.08140605316446399 0  0.1108170457022867 0.09049022742137205 0  -0.08249999999999999 0.1 0  -0.07849279483093181 0.09068500987040669 0  0.09901040145429967 0.0905247702494426 0  -0.07619083563024201 0.007152163970009891 0  -0.03784209605914159 0.06649148111429766 0  0.03557615988040569 0.07650767001919569 0  0.03302905362294855 0.03368357951329398 0  0.001528049998133968 0.0421884697145129 0  -0.06677219502603519 0.0755735126223121 0  -0.07078299185927128 0.02093806600642789 0  0.07624698700554428 0.01898789084580359 0  0.0425071772133816 0.008872273040118464 0  0.06222675218673776 0.01983691994242202 0  0.05125 0.006533019494560529 0  -0.08112674022156063 0.07793832028046994 0  0.0894563302875119 0.04461415956113914 0  0.07600555403016987 0.04440122631805228 0  0.1011730931788228 0.01956623203424818 0  0.08875791189114002 0.01876216216110217 0  0.07625 0.006253986928595243 0  0.10125 0.00625378014893175 0  0.06159289116562519 0.008367939956509781 0  0.1133219866490167 0.006678013350983326 0  0.12 0.03125 0  0.08875 0 0  0.09447377394606553 0.07772073910541109 0  0.1125347363168419 0.07917181005820358 0  -0.0360489221788708 0.04088174671649498 0  0.07238835401788725 0.0586903785336876 0  0.07770534388963661 0.0735202678075017 0  -0.02352204721963873 0.05812853133009549 0  0.02771469012026706 0.007208889738796465 0  0.06289457418076626 0.0332368862735679 0  0.02997504279709136 0.060078672135782 0  0.0379740367310045 0.0521076669766706 0  0.02209772318747019 0.04741115745969623 0  -0.0375 0.1 0  -0.04152152214341864 0.09214855581173653 0  0.07670804270236463 0.03261307516989712 0  0.08846339346732941 0.03112076208171376 0  0.06426407185079112 0.0439136177978413 0  0.05037140838704721 0.03465168226171754 0  -0.1136136594712047 0.0428084044537857 0  -0.113526383098718 0.06949936267301912 0  -0.002312773411525084 0.05922711625796673 0  0.04612867834591947 0.09118715625326625 0  0.0525 0.1 0  -0.0525 0.1 0  -0.05642436013397981 0.09226832717651308 0  0.12 0.01875 0  0.0375 0.1 0  -0.1021974954105155 0.06059626541185022 0  0.04989633308677061 0.02348577305550612 0  -0.12 0.03125 0  0.003928287502683688 0.08448841352572942 0  0.1030125400079595 0.05335714910633224 0  0.1025673057510353 0.0660868
[...]
<PointData  Scalars="f_29"> 
<DataArray  type="Float64"  Name="f_29"  format="ascii">1.0928817134207881e+01  1.2451073795937273e+01  5.0000000000000000e+01  4.9999999999999993e+01  5.0000000000000000e+01  5.0000000000000000e+01  5.0000000000000000e+01  5.0000000000000000e+01  5.0000000000000000e+01  5.0000000000000000e+01  5.0000000000000000e+01  5.0000000000000000e+01  5.0000000000000000e+01  5.0000000000000000e+01  5.0000000000000000e+01  5.0000000000000000e+01  5.0000000000000000e+01  1.2454428874962916e+01  1.0928744580897799e+01  1.5478854939045204e+01  1.2831247499676799e+01  1.2829596098616785e+01  1.1653502818303267e+01  1.8316596752139557e+01  1.1654426855700189e+01  1.8333098366621961e+01  1.4914834736245236e+01  1.7942858942873592e+01  1.7575725115353574e+01  2.1486978664339585e+01  1.2164801110998045e+01  1.3873780872401509e+01  1.1420098108147092e+01  1.3371676610538675e+01  2.4363464067497283e+01  1.4611305155357153e+01  1.1419330199976194e+01  1.4612324154061877e+01  1.1758165273536719e+01  1.5016969011081580e+01  2.6982687694166717e+01  2.8347225255325721e+01  2.7392164585992635e+01  1.9117795635299615e+01  1.7341774970336331e+01  1.4225349498120133e+01  1.3756008426169029e+01  1.2210501539661687e+01  1.3755029190744819e+01  1.2209218889279320e+01  1.1136126020948572e+01  1.1136104130722172e+01  2.8293356857837402e+01  1.6423956427095543e+01  1.2332600933160235e+01  1.8493471969901400e+01  1.6122246674542581e+01  1.2238106914194812e+01  1.9462971643209357e+01  1.4011926709070995e+01  3.1162183280985591e+01  2.7501784305594651e+01  1.3818754681711535e+01  1.2074207875534771e+01  1.2024616253941764e+01  1.1242388411722489e+01  1.1052237806447559e+01  2.0037785671956456e+01  1.6783951469846937e+01  1.4617828997280515e+01  1.5874527439661744e+01  1.2983575309266104e+01  1.4089341707596789e+01  1.5357803625517134e+01  1.2710932901834603e+01  1.2192472814555304e+01  2.2677083328921078e+01  1.2444633412569859e+01  3.2723804591233453e+01  3.3660872216125625e+01  2.1859702417057051e+01  1.8495906883771326e+01  1.1174103035508393e+01  1.2902591608712729e+01  1.5238562056465961e+01  1.1580688907836201e+01  1.1950018873649700e+01  1.5777778023266800e+01  2.3342884672990341e+01  1.1368299020369216e+01  1.1051336249834341e+01  1.2024694084488823e+01  1.5243833470472422e+01  1.3740780903702710e+01  1.3742260494046118e+01  1.1444124273396543e+01  2.2829851896288375e+01  1.3525009639616799e+01  2.4022044845451411e+01  3.5101020645240148e+01  1.1655169420903544e+01  1.4832281537159247e+01  1.6811801063271830e+01  2.5257837520234808e+01  1.2329631390368315e+01  1.1520612442365179e+01  3.5397627059889615e+01  3.6876046389654704e+01  2.2976229960855704e+01  1.3042221579255505e+01  1.2769697272981171e+01  1.2386570050544774e+01  1.3468106630320326e+01  1.5784502721934970e+01  1.4283541464492906e+01  1.9170708629326832e+01  3.6336132278706401e+01  1.5781231078008695e+01  1.5769391413097702e+01  1.8922405544459821e+01  1.4904986919304847e+01  1.6044026594127882e+01  1.8044707435748911e+01  1.0983491117151292e+01  1.5540744184283907e+01  2.2448277609701158e+01  2.0614823967733827e+01  1.5535714327668160e+01  1.1368687528987598e+01  1.1950846536282929e+01  1.2390457695982770e+01  3.6797359204191771e+01  2.2417085965800855e+01  1.2767374603211577e+01  1.0983647798094626e+01  2.0554361185428004e+01  2.0394055265291691e+01  1.2530434788042772e+01  1.3669354765678390e+01  1.3787186083993127e+01  2.6976829166423585e+01  1.2696179694789322e+01  1.5946036224272575e+01  1.1292564403768912e+01  1.6616068548776674e+01  1.8132963444638520e+01  3.7618885489580620e+01  1.1607013582640812e+01  1.4153989055481286e+01  1.5800544844414812e+01  1.6138148818326130e+01  1.8133718604103951e+01  1.8628753233021378e+01  1.9560971561798471e+01  1.3168877665773561e+01  1.1966806959263270e+01  1.2025373602289626e+01  1.1904285622186146e+01  1.2959884947605905e+01  1.2714489215871730e+01  1.2448394129993835e+01  1.5559046513609305e+01  1.5650610105396961e+01  1.7743556173833714e+01  1.5176986774423218e+01  1.2830219340355692e+01  1.4838639611376784e+01  1.5587858810869458e+01  1.3842932096395685e+01  1.2875267789598057e+01  2.2357349615419221e+01  3.2109487488202866e+01  2.8174342928109990e+01  3.0243852522821221e+01  1.1783643024560895e+01  1.1923848950696364e+01  1.2872950898607817e+01  1.5159376123864220e+01  2.6864797075003722e+01  3.8807675920161159e+01  2.9117159129661104e+01  2.5560871223215116e+01  1.1586268879040475e+01  2.9708378850355167e+01  1.7513280183175837e+01  1.3009021003266325e+01  1.3936378293477484e+01  1.4216313560971651e+01  1.1295120789858888e+01  1.1174072360634410e+01  1.1205695610840078e+01  2.3013801083661612e+01  1.2442022445872508e+01  1.3132618464033115e+01  3.9441865496187866e+01  1.2373941597431893e+01  1.0959187535818355e+01  1.1026493714059480e+01  1.0959800992392017e+01  1.2417936481223306e+01  1.2581170815569712e+01  2.3196137150221904e+01  1.5739150130284518e+01  1.1947095325286559e+01  1.4439465141936269e+01  1.4749350406935347e+01  3.9279464445576686e+01  2.0131205455397041e+01  1.3253924619796269e+01  1.1009902703546951e+01  1.1694161255374281e+01  1.1944151179874305e+01  1.1214105423562827e+01  1.6717797701813797e+01  1.7079457881476429e+01  1.5790663436812014e+01  2.7178559750392353e+01  3.0057942097209782e+01  1.3187337359325769e+01  1.7332901092361794e+01  1.6269171482067904e+01  2.9193938898431099e+01  1.9675796210534230e+01  2.4903238650437345e+01  1.2142202038446845e+01  1.3061040627000187e+01  1.4553461380613669e+01  1.2965587294540169e+01  1.4230839251546287e+01  1.6724824046556250e+01  1.3148966875269506e+01  2.0708358208198430e+01  1.2522102239203100e+01  1.2085870578964613e+01  1.4534950454513798e+01  1.1546388710604228e+01  1.1111512163890993e+01  2.3733143851782938e+01  1.3866930758030612e+01  1.2519305055924789e+01  2.0836506783156278e+01  4.0206950055895433e+01  1.8013684336329217e+01  1.9436841352620462e+01  2.0114422864252731e+01  2.4783493131057760e+01  1.4192610071902795e+01  1.4107142644415783e+01  1.5336075367753564e+01  1.3792928039763643e+01  1.6438145402405731e+01  2.1092754344016697e+01  1.1881554389644510e+01  1.1263893484366024e+01  2.2122784394532701e+01  1.3845624784148534e+01  1.3281235612468429e+01  1.3278414054351490e+01  1.3146844788274493e+01  1.2311686864603789e+01  1.4196410150617517e+01  1.1719648164443283e+01  2.3382101916263490e+01  1.2086696372420187e+01  1.6367691253049113e+01  1.1900613975765504e+01  1.1559883549860931e+01  1.1505721112195360e+01  2.0201095128049861e+01  2.1157761263425485e+01  1.2406139640865989e+01  1.6973051672232636e+01  1.3832721138768537e+01  3.2458373771014820e+01  1.6754324443688720e+01  1.4738426373479721e+01  1.4760368138612460e+01  1.6981547317633243e+01  2.5171784344484507e+01  2.0263030379023483e+01  1.2680532967349045e+01  1.1422051588063416e+01  3.2384419031017387e+01  1.5287319828687489e+01  2.6253826434290779e+01  2.0600636085070271e+01  2.6524731219635271e+01  1.2329817925534950e+01  1.1642375963557718e+01  1.4967824175513149e+01  1.5488652561060087e+01  1.4969080559773465e+01  1.5415021617447612e+01  1.2406472476470656e+01  1.2407438376495531e+01  1.1693301865139812e+01  1.1205938376140937e+01  1.5416328702669130e+01  1.1753802261818533e+01  1.1608020255087984e+01  4.0623417479460521e+01  4.1108788061775158e+01  1.8187090595862248e+01  1.8044659339656079e+01  1.2092089102772119e+01  1.2258145263424447e+01  1.7726755266038673e+01  1.1243728808587964e+01  1.1355664432532505e+01  1.0943459729665575e+01  1.8258504644990332e+01  1.8998000793422154e+01  1.2797225163062805e+01  1.2249242405040011e+01  1.1445072828289364e+01  1.1046725504757687e+01  1.1332303998106102e+01  1.2977786051196915e+01  1.4668165365859359e+01  1.5502510507152847e+01  1.5092870695170923e+01  1.4537064739945714e+01  1.4303577031653392e+01  1.3420330511560957e+01  1.5930526461695877e+01  2.2722624359902994e+01  1.1830134728332377e+01  1.1386109230836375e+01  2.3087343719707416e+01  4.1481985094429156e+01  3.0512169926003132e+01  1.2153710990221871e+01  1.2879765315419966e+01  2.2743610653292915e+01  2.5984193174648937e+01  1.1138035044669625e+01  2.5827708621550762e+01  1.2132194030361921e+01  1.3916352541344301e+01  1.2425285119553774e+01  1.2996392865250224e+01  1.2549200748445577e+01  1.3335754555305009e+01  2.0326869950223795e+01  1.4505557248207701e+01  1.6574334644224280e+01  4.1786982281901771e+01  1.5140245047906509e+01  1.5394787751498054e+01  1.4508012711276287e+01  1.2918383349515063e+01  1.2766670660081385e+01  1.7917294804905250e+01  1.5244509886805229e+01  2.2554729060124544e+01  1.1717266088743109e+01  1.1411184925712544e+01  1.4296646145040826e+01  1.4970106638098413e+01  4.2164358344917254e+01  1.4645671188900797e+01  1.1323016848879215e+01  2.3661401244015561e+01  2.0506012247291974e+01  1.3963297878459830e+01  1.2303062186887217e+01  1.7150102304559041e+01  1.6800989893301374e+01  2.7653762072682444e+01  1.3347515061888325e+01  1.3637892316612087e+01  2.5641879957630966e+01  2.8084922647007019e+01  3.4251875078286112e+01  3.2128763977714073e+01  3.3568005602937980e+01  1.8941713107385645e+01  1.5204392930364005e+01  1.6654931933644193e+01  1.5473964172386541e+01  2.3035180143831184e+01  1.1914785856147335e+01  1.3788023203928979e+01  1.0943509204592850e+01  1.6638041947146682e+01  3.2925384277017876e+01  1.8196717201722432e+01  1.8361158945291876e+01  1.6910684717886713e+01  1.6420736304878858e+01  1.5196454371788905e+01  1.5087525385792516e+01  1.4835167751570447e+01  4.2680714934534365e+01  1.2043515055356071e+01  2.0544999180345844e+01  1.3088563909786895e+01  3.3972046169232307e+01  3.4700318702492552e+01  2.8063357335827593e+01  1.4615346403662505e+01  1.6551699729914219e+01  1.2529960360244184e+01  1.2436404170838939e+01  2.2106832698351116e+01  2.0081910334849290e+01  3.6286793484741921e+01  2.2422349611312388e+01  1.7214191636803370e+01  1.3271504084517133e+01  1.4356230247468016e+01  1.4245163424894731e+01  1.3466448002094332e+01  1.3574420916840470e+01  1.2283427337228394e+01  1.6561912447654233e+01  1.5965757983601057e+01  2.3670982420424696e+01  1.6565470977122729e+01  1.8022466167508206e+01  1.8255382136323679e+01  2.0833017821552833e+01  1.8972456140336099e+01  2.0792741454256738e+01  2.1232204101900937e+01  1.4094127004472877e+01  1.3417577282803183e+01  1.7128831331417317e+01  1.8390451762800119e+01  3.2207340223986243e+01  1.3173032532475835e+01  1.6796028869380716e+01  2.5136431289302415e+01  1.5143770065444615e+01  1.1244752738004168e+01  4.2558966347716840e+01  1.2438873243635554e+01  1.2309366471186090e+01  1.1048031134887369e+01  1.2533573125116851e+01  2.0176514328310716e+01  1.6784535298622686e+01  2.5097578878348973e+01  1.1802243061994176e+01  1.1507714286233668e+01  1.3173126345951914e+01  1.1048650957052297e+01  1.1803243156312588e+01  1.5610893956916717e+01  1.5828808627421232e+01  1.3505700692870999e+01  1.9571076735680084e+01  2.1684829880814039e+01  1.8646920341143183e+01  1.3997295422072092e+01  1.5490300721685466e+01  1.2239593175287704e+01  1.9159979024431003e+01  3.4340938813350057e+01  1.4059336584426664e+01  1.7608326333519674e+01  1.7096132151712748e+01  1.9645531156219530e+01  1.6167629872982292e+01  1.5785617453744493e+01  1.3097953564094190e+01  1.3779790255568834e+01  1.1126146103534762e+01  2.9451811069875088e+01  1.2250771207032477e+01  1.2528714537354052e+01  1.2798581717751501e+01  2.0769823685302185e+01  1.3412884801489026e+01  1.7768172951843606e+01  1.1480583664831864e+01  2.6730477357188661e+01  1.8752853756577284e+01  1.2758893626340136e+01  1.5751590261150010e+01  2.4818692451386344e+01  1.5936454430406663e+01  1.1220765604293971e+01  1.1209300175810741e+01  1.2594157902511336e+01  1.6591714301875818e+01  2.4145563062114768e+01  1.4495693231562189e+01  1.5019054386039413e+01  1.1103717649998567e+01  1.1566080762263107e+01  1.5388902187904046e+01  2.6379976205701663e+01  1.2463403981538422e+01  1.2215117388832233e+01  1.2391782184708870e+01  1.2651236096086118e+01  1.2516433923997845e+01  1.2592068639902875e+01  4.2924236796325111e+01  4.2818541709205320e+01  1.5751166294277906e+01  1.7965506274468940e+01  1.5842214932649966e+01  1.7347150494568140e+01  1.2203001191227550e+01  1.1833402585041176e+01  1.3478061022334714e+01  1.3543384267167863e+01  1.2896833608971594e+01  2.0650812441128622e+01  1.5154226945333113e+01  1.1512856127847252e+01  1.1066546450693773e+01  1.1739609735359430e+01  1.2040926661942549e+01  2.9963007349370518e+01  1.7437589420752797e+01  1.6184653854366594e+01  1.4984248877096007e+01  1.8837009335686520e+01  3.6973696117715662e+01  2.0014617852394469e+01  1.2644972272506656e+01  1.2452156540839157e+01  2.4660135339060176e+01  1.1006680445296336e+01  1.0957682746383764e+01  1.1130071853870721e+01  1.2624239665436596e+01  1.2723238722259680e+01  1.2400288012782898e+01  1.3369233269907530e+01  2.1791901728531446e+01  1.2082184734772689e+01  1.1005744975977281e+01  1.2060386650076987e+01  1.1734833683041025e+01  1.1800267454037723e+01  3.0091100852135817e+01  2.5620418636352067e+01  1.2555569696241628e+01  1.2728534893604698e+01  1.3264401659600074e+01  1.5726599552520364e+01  1.2040081324723973e+01  1.3798456997761249e+01  1.1963346415056661e+01  2.9393335819413366e+01  1.1542738750948512e+01  2.9476280722425894e+01  1.2454066845390782e+01  1.4481831262369985e+01  3.6471509520365444e+01  2.0920118845747204e+01  1.3095971223592452e+01  1.6111376239184256e+01  1.1813382555561015e+01  1.1732980924736088e+01  2.5124971762422430e+01  3.3222105982440361e+01  2.8946599587941893e+01  3.0015470185992012e+01  1.1129754827516788e+01  1.2174517246104168e+01  1.9076895314129903e+01  1.3241073416966779e+01  1.5045140951636673e+01  1.3123290105588627e+01  1.1104558035645546e+01  1.4384574541655592e+01  2.4388473531928547e+01  1.3493078189430408e+01  1.4837270135532410e+01  2.5259847317488273e+01  1.5446768981542050e+01  1.3546186591307993e+01  1.5184472013447516e+01  1.4569592093991723e+01  1.5874415912272141e+01  1.5547160289659605e+01  1.5183678510996286e+01  1.4810112372041782e+01  1.5406353698989065e+01  2.5344138910146182e+01  2.1783571443772463e+01  2.9735012456537920e+01  1.1620636095880807e+01  1.7015616309234911e+01  1.7075370392660140e+01  1.1987725675225827e+01  1.8040083536827190e+01  3.6977247430615684e+01  1.2636173036030860e+01  1.4011446218588924e+01  3.1356175748458860e+01  2.1733717675697598e+01  1.1833690062128991e+01  1.1742811612460988e+01  1.1408657940218285e+01  1.2533329271317116e+01  1.2881549169594066e+01  1.3404016799755150e+01  1.0989751139646076e+01  1.2311427157194387e+01  1.8217562030767006e+01  1.5224980673489862e+01  2.2597101835888427e+01  1.4703006977701257e+01  1.2435438869185152e+01  1.3512987945486850e+01  1.2939254179627005e+01  1.6161344376925335e+01  1.1319700816463186e+01  1.6890477430160477e+01  1.1643085867254246e+01  2.9506506751907523e+01  1.9276769777278073e+01  2.6401965112314969e+01  1.2058857372230735e+01  1.1301284745141517e+01  3.4690656689968023e+01  1.1417514806943531e+01  2.3366823395997599e+01  3.6011244197212619e+01  4.3811861292966796e+01  2.9997024802441661e+01  1.2841631882468024e+01  1.3958206051714814e+01  1.1811145728614449e+01  1.3050862394152604e+01  1.6571525628677868e+01  1.1471644521407097e+01  1.1263205282956182e+01  1.1305332735589809e+01  1.1374714865263137e+01  1.6601154078411980e+01  1.6347448787919411e+01  1.1037193163593836e+01  1.1780361487124058e+01  1.8626412460765550e+01  3.8025338569764720e+01  3.0406076944065617e+01  3.5416960085420257e+01  1.2008687450178080e+01  1.5621197178858219e+01  4.4134171622774929e+01  4.3552304488635656e+01  2.4775470216893506e+01  1.5462940508240102e+01  2.1585441769630297e+01  2.4914541978647790e+01  1.2026116334026604e+01  1.4734392480490669e+01  1.2189612083676542e+01  1.1803413731521161e+01  4.3899929572449203e+01  1.2920758186624850e+01  1.1880247643863669e+01  1.2272935899527477e+01  1.1966399906872189e+01  2.0965256463169780e+01  1.4453029661545093e+01  1.2609258864509870e+01  3.3247820046505289e+01  2.5210548598784104e+01  2.2346308346926438e+01  1.3575083307690203e+01  1.9503665672071687e+01  1.2005446236891146e+01  1.9848418709406342e+01  1.6999714706949447e+01  1.0936828989297158e+01  1.0956990077674723e+01  1.7033654529885748e+01  1.5002104126851712e+01  1.1495232412261734e+01  1.3070113047627151e+01  1.8671215928629991e+01  1.2621481406187957e+01  1.2805471831616853e+01  2.1523230970130076e+01  2.1416190513948312e+01  1.5867084576114747e+01  1.2100818152375611e+01  1.0990946574442516e+01  1.2485062235310576e+01  1.6859817910513474e+01  1.1247043267205049e+01  3.0783232338240893e+01  4.3660057779675213e+01  1.3692095055328705e+01  1.1348111216580795e+01  3.8710930087748295e+01  1.4703250613233728e+01  2.7345338522152172e+01  4.4304639716676178e+01  2.0691172486425916e+01  3.2584389265189408e+01  1.1594291923961601e+01  1.2469821910565162e+01  1.9499599981706556e+01  1.1402723450659421e+01  1.6274964641203582e+01  1.9290903347417061e+01  1.5050803516669543e+01  1.4484179326984410e+01  1.4292316115812637e+01  1.2865397670638842e+01  1.3817800989585235e+01  2.2184003232464541e+01  1.7506465428275835e+01  1.2722294543668903e+01  2.3940539796225739e+01  3.7363317394460402e+01  1.6730504648182318e+01  4.5035984664862454e+01  1.5102959654513120e+01  1.9940744796853345e+01  1.6728217363227518e+01  1.9179244680650736e+01  1.9761290898722599e+01  1.9200112306458905e+01  2.3801688224674376e+01  1.4698500261574816e+01  3.2685485123369730e+01  3.0301103545426258e+01  1.4673983662918674e+01  1.1314334033717035e+01  1.1682222771480314e+01  1.4454978219241399e+01  1.3514375627431399e+01  1.5792219555539720e+01  1.5147856707410677e+01  1.5768162977018969e+01  1.6563431443074762e+01  1.7881669099210548e+01  1.7934751312900978e+01  2.7489015759201475e+01  1.2029476603865374e+01  1.2361448073297693e+01  2.2827482297512724e+01  1.5608506258284635e+01  2.1610382703415507e+01  1.4441760127949692e+01  1.1753857641392194e+01  1.9593610604869802e+01  1.7768354817271245e+01  1.6103470899747570e+01  1.4367646543849370e+01  2.8145791006052399e+01  1.3899380913761421e+01  2.1770067250115847e+01  2.7824318291567735e+01  1.5508259438305670e+01  1.3757841866167903e+01  1.3439134217819541e+01  1.3571835520046289e+01  2.8437979336897392e+01  1.2641465899959579e+01  1.3124015953404513e+01  1.3546011277867089e+01  2.4973041779937663e+01  3.8552496816207061e+01  1.2159139381533725e+01  3.2142906258033612e+01  1.3966786132250226e+01  1.4074771367819251e+01  1.3393324821796703e+01  1.7115458761430375e+01  1.5625825178304074e+01  1.3914830938994797e+01  1.5509174921988135e+01  2.3975730036780153e+01  1.2281202744596580e+01  1.5508465545455152e+01  1.3738777144483368e+01  1.5758438035969171e+01  1.2819089270946201e+01  2.1211211302670090e+01  2.1481596248343550e+01  1.4551242835490845e+01  2.0156819567016051e+01  1.8493606923838303e+01  1.4225840483340008e+01  1.1103690150754778e+01  1.3576760959634861e+01  1.4177644790044440e+01  1.9196569063003921e+01  1.2689961620173822e+01  1.2613129775894366e+01  1.4883145447722379e+01  1.2902502282813723e+01  1.4481908745454373e+01  1.4178748561152666e+01  2.4236669656140801e+01  1.5814355701303823e+01  1.3896111480161236e+01  1.2623764295516269e+01  1.7508468266616507e+01  1.7386813270367178e+01  1.6111430414579655e+01  1.6012983023969976e+01  1.3450241603093790e+01  1.3412585146304163e+01  1.4258984442330132e+01  1.2473382743745828e+01  1.9800125898585890e+01  1.7470405686156088e+01  1.6670910938869682e+01  1.3972415985529434e+01  1.1184224257260938e+01  2.7106322735679125e+01  1.1578401246347195e+01  3.2776851447516272e+01  1.1611635345470170e+01  1.1548581351830018e+01  1.6910385268024424e+01  1.3053688672173712e+01  2.5459650283815346e+01  1.1199630270967006e+01  2.2465792242542800e+01  1.1232296291276789e+01  1.4530753533643816e+01  2.2717172063714806e+01  1.3766594278071743e+01  1.2280175257564883e+01  1.5717089703011631e+01  1.2560991087723771e+01  1.2247887039602269e