<?xml version="1.0"?>
<VTKFile type="UnstructuredGrid"  version="0.1"  >
<UnstructuredGrid>
<Piece  NumberOfPoints="2743" NumberOfCells="5270">
<Points>
<DataArray  type="Float64"  NumberOfComponents="3"  format="ascii">-0.12 0.1 0  -0.12 0 0  -0.01986476715483886 0 0  -0.01986476715483886 0.002321858282504599 0  -0.01879385241571817 0.006840402866513377 0  -0.01670975622825873 0.01099017956141612 0  -0.01372483275737467 0.01454747283146098 0  -0.009999999999999995 0.01732050807568877 0  -0.005736064654221804 0.01915979024630978 0  -0.001162896578209515 0.01996616316542536 0  0.003472963553338608 0.01969615506024416 0  0.007921595320783138 0.01836432213760548 0  0.01194317183405572 0.01604246385510088 0  0.01532088886237956 0.01285575219373078 0  0.01787265280646825 0.008975983604009244 0  0.01946089741159648 0.004612317414848803 0  0.02 0 0  0.12 0 0  0.12 0.1 0  0 0.1 0  0.06 0.1 0  -0.06 0.1 0  0.12 0.05 0  0.06999999999999999 0 0  -0.12 0.05 0  -0.06993238357741943 0 0  0.06954545454545454 0.05045454545454546 0  -0.05256818197129183 0.04876858210896794 0  0.03 0.06852793994995832 0  -0.01060230953534651 0.06012868531377026 0  -0.08590602075287224 0.07008722490344668 0  -0.08700383268980955 0.03297312682365156 0  0.09 0.1 0  0.09454951298701297 0.02545048701298702 0  0.04421726329698947 0.02908215157121827 0  -0.03 0.1 0  -0.09 0.1 0  0.03 0.1 0  0.094941534914361 0.0689649209486166 0  -0.045 0.07602120282224097 0  0.0137000972673793 0.04576151173676769 0  -0.04489857536612915 0 0  -0.02795527007175781 0.03755044438085961 0  -0.06241371758055736 0.02479853554667227 0  0.06931814492325854 0.02522317739079102 0  0.0562106357694593 0.07357769546517523 0  -0.09496619178870971 0 0  0.12 0.025 0  0.095 0 0  -0.12 0.025 0  -0.12 0.07500000000000001 0  0.12 0.07500000000000001 0  0.045 0 0  -0.0228302666921874 0.07883391093803507 0  0.09815763663419913 0.04717696422689629 0  0.04642316516164364 0.05216224004895101 0  0.015 0.08426396997497916 0  0.07685335020605615 0.08199579006851358 0  -0.03212624651891543 0.05871373573766032 0  -0.06454151582324234 0.06677080404579981 0  -0.007428983740834363 0.03973215840314246 0  -0.04143162460864844 0.02103341629232999 0  -0.07788632568368571 0.05127672197436213 0  -0.09902623975019198 0.05337871787903269 0  -0.075 0.1 0  -0.1014173577311382 0.0832008292773658 0  0.105 0.1 0  0.008793975861786027 0.06520032249375621 0  -0.003877486809385651 0.08128666365361911 0  0.04056005001669608 0.08426396997497916 0  -0.07890609788649815 0.0162597993618741 0  -0.1010699031813867 0.01892186545593956 0  0.08267954418645374 0.03858457665398622 0  0.08249999999999999 0.01250797385719048 0  0.1070573481575616 0.01294265184243836 0  -0.1072273189424094 0.0375 0  0.05487128127324764 0.0148172916808382 0  -0.07306292723448589 0.08234923187849305 0  0.02604316659281994 0.02760414390118441 0  0.03422315740010771 0.01291039266157378 0  0.02953764603397802 0.05164069645856708 0  0.05711184749668567 0.0394951990120913 0  0.1048403709991175 0.08290422259947053 0  0.07836733468041428 0.06502779237175893 0  -0.015 0.1 0  0.107641636468974 0.05970823073603768 0  0.12 0.03750000000000001 0  -0.07203199631147464 0.0369378911801824 0  -0.05383214135241159 0.01227496304049853 0  -0.12 0.0625 0  -0.105 0.1 0  0.075 0.1 0  0.015 0.1 0  -0.045 0.1 0  0.045 0.1 0  -0.10518488525811 0.06789183644845204 0  -0.04335959578005873 0.03636269925572742 0  -0.05884641539443965 0.08000585119468683 0  -0.02074261661302542 0.04996461834162433 0  -0.02653136512200803 0.0222624586885067 0  -0.08714978711530966 0.08578346506967012 0  -0.03506452979410112 0.08648708658184591 0  -0.04620947545617006 0.0616799095273325 0  0.0006562636529589983 0.05143519384945657 0  0.1057204605480501 0.03475816363918364 0  0.09074280792825767 0.08565566471894244 0  0.005667439598789157 0.03387418246945268 0  -0.03238167126048401 0 0  0.0383080886578613 0.04129238651963005 0  0.08505369180647195 0.05254495235246789 0  -0.1074830958943549 0 0  -0.12 0.0125 0  0.05414542183412842 0.08735675763730583 0  0.04308500944676981 0.07115822817126308 0  0.0649349230807125 0.06320229510900416 0  -0.05637247339858926 0.03632415216907382 0  -0.01542434356580282 0.02929607297537314 0  0.02778002500834804 0.08142901444438948 0  -0.06542774243586742 0.04799884169932159 0  -0.06661544991358234 0.0127173865239021 0  0.08192808295131557 0.02597463862592918 0  0.07006960615839669 0.03783311541884806 0  0.06988230421815755 0.01261762329223161 0  -0.12 0.08750000000000001 0  -0.08244928768306457 0 0  -0.05741547947177429 0 0  -0.03984291085584598 0.04859364585838993 0  0.08249999999999999 0 0  0.12 0.0625 0  -0.12 0.03750000000000001 0  0.12 0.0125 0  0.0325 0 0  0.0575 0 0  0.1075 0 0  0.12 0.08750000000000001 0  0.02042070411167864 0.06034025931465875 0  0.05702213417260474 0.02706267745085339 0  0.0675 0.09013045458016318 0  0.09478643990600856 0.0122865785926504 0  -0.04904630236735645 0.08801060141112049 0  0.02613192868361687 0.0398635327923046 0  -0.09569137037305205 0.04159910065917647 0  0.05140611894455763 0.0628291923813368 0  0.1085809652542695 0.07158881227331852 0  0.05796589338150855 0.05105903259253412 0  0.03841143349411784 0.06054564265388553 0  -0.02947166435407259 0.01113520957350828 0  -0.1102478054683027 0.05625 0  -0.09068017366517905 0.01182794374687028 0  -0.01434600857542353 0.08772663538203848 0  -0.03362945317777148 0.07517582904977035 0  -0.01235387050651601 0.0723330924144738 0  -0.02307888867457602 0.06674121501662693 0  -0.002185408069912574 0.06756456274836646 0  0.0678638500046832 0.07452078468888843 0  0.08597040057425252 0.07558162872540394 0  0.09674588960513322 0.05809991882890109 0  0.1094709655577269 0.04555436451412986 0  0.09473770132491341 0.03658207429318428 0  -0.06454868296360231 0.08970720561340952 0  0.1088432154030167 0.02400081163981114 0  -0.07748216799376378 0.02726807518039781 0  0.0075 0.09213198498748959 0  0.01849963805527029 0.07258270415679953 0  0.0225 0.09213198498748959 0  -0.07477959581424944 0.07129038985899076 0  -0.05389685222033951 0.06954987308797576 0  -0.05952130701477828 0.05712689877479761 0  -0.09084078800149091 0.02274804774342801 0  -0.09837161430440977 0.03085986409994825 0  -0.05131093786741553 0.0263250162658456 0  0.01635618606258252 0.03530907600454269 0  -0.03460613037873773 0.02922068783924693 0  -0.04043226315035484 0.01006625299372829 0  0.08175024910257063 0.09159737271826002 0  -0.09494035380298299 0.06367583527464522 0  -0.0886934906578859 0.04994210372431981 0  -0.02490130542947547 0.09038352188878838 0  0.04417108737523257 0.01793664269923905 0  -0.003940932065510782 0.02996170313966536 0  -0.01783357510351885 0.03997209276407525 0  -0.009556322084365085 0.04984630266759408 0  -0.09566755421412014 0.074271403467777 0  0.0355203970594753 0.02354533265972011 0  0.006555555071563847 0.07647100871020274 0  -0.07937685857812513 0.06175606142440594 0  -0.082228823034201 0.04201720146426499 0  -0.06983948840172999 0.05776693996935201 0  -0.09555085505908593 0.09149315155487603 0  -0.1098516392886323 0.0771584086134595 0  0.0975 0.1 0  0.01159727503865655 0.05556931308228881 0  -0.1115659278883601 0.01875 0  -0.1012246438415323 0.008426566493923617 0  0.01474516449273796 0.0255393740673827 0  0.08779480154260712 0.06219573447921576 0  -0.1125 0.1 0  -0.109677715301956 0.0898066291811736 0  0.1125 0.1 0  -0.1076436806656361 0.02771938223489072 0  -0.1109003748179492 0.009075404417277109 0  -0.03013785075543634 0.04712089514258909 0  -0.004952464847218618 0.0912677883600678 0  -0.1065795284902037 0.04722264329381553 0  0.04842831953664987 0.07898377417315099 0  0.03252098192319938 0.09028046125939154 0  0.02476218534733019 0.01628634550873906 0  0.04791904264346727 0.04258131505029045 0  0.06144185941573184 0.08140605316446399 0  0.1108170457022867 0.09049022742137205 0  -0.08249999999999999 0.1 0  -0.07849279483093181 0.09068500987040669 0  0.09901040145429967 0.0905247702494426 0  -0.07619083563024201 0.007152163970009891 0  -0.03784209605914159 0.06649148111429766 0  0.03557615988040569 0.07650767001919569 0  0.03302905362294855 0.03368357951329398 0  0.001528049998133968 0.0421884697145129 0  -0.06677219502603519 0.0755735126223121 0  -0.07078299185927128 0.02093806600642789 0  0.07624698700554428 0.01898789084580359 0  0.0425071772133816 0.008872273040118464 0  0.06222675218673776 0.01983691994242202 0  0.05125 0.006533019494560529 0  -0.08112674022156063 0.07793832028046994 0  0.0894563302875119 0.04461415956113914 0  0.07600555403016987 0.04440122631805228 0  0.1011730931788228 0.01956623203424818 0  0.08875791189114002 0.01876216216110217 0  0.07625 0.006253986928595243 0  0.10125 0.00625378014893175 0  0.06159289116562519 0.008367939956509781 0  0.1133219866490167 0.006678013350983326 0  0.12 0.03125 0  0.08875 0 0  0.09447377394606553 0.07772073910541109 0  0.1125347363168419 0.07917181005820358 0  -0.0360489221788708 0.04088174671649498 0  0.07238835401788725 0.0586903785336876 0  0.07770534388963661 0.0735202678075017 0  -0.02352204721963873 0.05812853133009549 0  0.02771469012026706 0.007208889738796465 0  0.06289457418076626 0.0332368862735679 0  0.02997504279709136 0.060078672135782 0  0.0379740367310045 0.0521076669766706 0  0.02209772318747019 0.04741115745969623 0  -0.0375 0.1 0  -0.04152152214341864 0.09214855581173653 0  0.07670804270236463 0.03261307516989712 0  0.08846339346732941 0.03112076208171376 0  0.06426407185079112 0.0439136177978413 0  0.05037140838704721 0.03465168226171754 0  -0.1136136594712047 0.0428084044537857 0  -0.113526383098718 0.06949936267301912 0  -0.002312773411525084 0.05922711625796673 0  0.04612867834591947 0.09118715625326625 0  0.0525 0.1 0  -0.0525 0.1 0  -0.05642436013397981 0.09226832717651308 0  0.12 0.01875 0  0.0375 0.1 0  -0.1021974954105155 0.06059626541185022 0  0.04989633308677061 0.02348577305550612 0  -0.12 0.03125 0  0.003928287502683688 0.08448841352572942 0  0.1030125400079595 0.05335714910633224 0  0.1025673057510353 0.0660868
[...]
<PointData  Scalars="f_29"> 
<DataArray  type="Float64"  Name="f_29"  format="ascii">1.3451727690373009e+01  1.5794648790210722e+01  5.0000000000000000e+01  4.9999999999999993e+01  5.0000000000000000e+01  5.0000000000000000e+01  5.0000000000000000e+01  5.0000000000000000e+01  5.0000000000000000e+01  5.0000000000000000e+01  5.0000000000000000e+01  5.0000000000000000e+01  5.0000000000000000e+01  5.0000000000000000e+01  5.0000000000000000e+01  5.0000000000000000e+01  5.0000000000000000e+01  1.5798574802800118e+01  1.3451974826667975e+01  2.0052242269308554e+01  1.6452619245265858e+01  1.6450552492789001e+01  1.4603899013951061e+01  2.1919128631806167e+01  1.4604695539618691e+01  2.1935185503578566e+01  1.8496725957991160e+01  2.1699974018384459e+01  2.1728469345736787e+01  2.5479726988856601e+01  1.5273394948208702e+01  1.7310969896232542e+01  1.4277345509467571e+01  1.6771779398980563e+01  2.7677428866213948e+01  1.8923956788164809e+01  1.4275981058742245e+01  1.8924947202365608e+01  1.4704564010258496e+01  1.9019565926209530e+01  3.0279257987242289e+01  3.1189987086235387e+01  3.0515863280367057e+01  2.2713921840969778e+01  2.0961090867892512e+01  1.7996280474960390e+01  1.7246537776791726e+01  1.5441698951590469e+01  1.7245655262054292e+01  1.5439864213713063e+01  1.3792713003357521e+01  1.3793044296048965e+01  3.1142116003229365e+01  2.0768334283497413e+01  1.5476209540099303e+01  2.2310639938266444e+01  2.0582815163091755e+01  1.5466449814244330e+01  2.3427877830091781e+01  1.7620412189097678e+01  3.3916312514402058e+01  3.0477780823928878e+01  1.7255241983666711e+01  1.5132864411990132e+01  1.5239906449886060e+01  1.3962802081364689e+01  1.3663530355282521e+01  2.4198107435528364e+01  2.1266919414874760e+01  1.8723229234006411e+01  1.9469881275336796e+01  1.6358953246929111e+01  1.7544916003461182e+01  1.8938599932961996e+01  1.6070185290631976e+01  1.5348656521042399e+01  2.6066821490020605e+01  1.5766724731129777e+01  3.5147412676772888e+01  3.5890222825606848e+01  2.5624269125074751e+01  2.2167929673402991e+01  1.3853736134454582e+01  1.6218823371618303e+01  1.9746114243253185e+01  1.4464512827504567e+01  1.5053822182620955e+01  1.9372521786627942e+01  2.6676816774324241e+01  1.4161082779262809e+01  1.3661761958988631e+01  1.5240280019396778e+01  1.9750890658201897e+01  1.7746280091005840e+01  1.7747992195424548e+01  1.4256986810063383e+01  2.6315977889557999e+01  1.7219038037776919e+01  2.7638257027507350e+01  3.7188298682768512e+01  1.4618554121986135e+01  1.9045898018181614e+01  2.0728295562460477e+01  2.8824357317310930e+01  1.5528781714422081e+01  1.4409219286750771e+01  3.7549983874955281e+01  3.8673086369583586e+01  2.6508158124896802e+01  1.6338225605851299e+01  1.6155693309766566e+01  1.5700748081480969e+01  1.7262999176498870e+01  1.9803367545983210e+01  1.7898283317623722e+01  2.2813499129872174e+01  3.8317018181026079e+01  2.0088408175231852e+01  1.9415381865646275e+01  2.2509770861490082e+01  1.8445163946004598e+01  1.9655011590121457e+01  2.1652859607711825e+01  1.3544931575033051e+01  1.9135409118642453e+01  2.5842411774677476e+01  2.4361027473840402e+01  1.9129958193627122e+01  1.4162063254814834e+01  1.5054453518737303e+01  1.5705500818292665e+01  3.8604354459985423e+01  2.5813374876999294e+01  1.6153541447565829e+01  1.3545556766410607e+01  2.4566244723765877e+01  2.3952036167153480e+01  1.5966684768025715e+01  1.7139440405777307e+01  1.7706067094756349e+01  3.0171562441896917e+01  1.5934923662046817e+01  1.9800521367036641e+01  1.4032869123136908e+01  2.0347919176973178e+01  2.2105633999043029e+01  3.9330783695253110e+01  1.4511931143786805e+01  1.7665729834873176e+01  2.0288582750963126e+01  2.0322266731212537e+01  2.2457070688648109e+01  2.2795178856520412e+01  2.3792856330763964e+01  1.6663861346933263e+01  1.5026944235719396e+01  1.5062014891393947e+01  1.4949104106541128e+01  1.6262852433891300e+01  1.6231020909199948e+01  1.5725119403303015e+01  1.9134515078067523e+01  2.0198751336517507e+01  2.2042478399834263e+01  1.9598187674672136e+01  1.6179049504711330e+01  1.8661147741603308e+01  1.9310190934007316e+01  1.7303118096027834e+01  1.6186998010002895e+01  2.5804825977369035e+01  3.4688416401286808e+01  3.1130893460677303e+01  3.2881925732717349e+01  1.4845784848879795e+01  1.4925955690546431e+01  1.6130885436458289e+01  1.9544934160719393e+01  2.9893111417167908e+01  4.0464153068830392e+01  3.2100388054016669e+01  2.9065292864960938e+01  1.4468619749360354e+01  3.2457376196775392e+01  2.1926706094773746e+01  1.6330612789552273e+01  1.7372105545822915e+01  1.7759578729424486e+01  1.4064377429554535e+01  1.3850071209348297e+01  1.3922468592204773e+01  2.6823584100981300e+01  1.5741570260343600e+01  1.6554270939567761e+01  4.0974529801364561e+01  1.5521327189786009e+01  1.3504062175030736e+01  1.3617700029681385e+01  1.3505464588079294e+01  1.5670464100692088e+01  1.5932380268775731e+01  2.6805969088433319e+01  2.0293046948232835e+01  1.4994131958107994e+01  1.8376042904586686e+01  1.9015363249385615e+01  4.0784532268337152e+01  2.3807285995254933e+01  1.6879023282676371e+01  1.3590452245510045e+01  1.4719974669089284e+01  1.5089928060060480e+01  1.3929954310105888e+01  2.0333583873638968e+01  2.1132346434482837e+01  1.9956624530701024e+01  3.0277641232580638e+01  3.2978271475598078e+01  1.6703397105786827e+01  2.0948432212995463e+01  1.9873395830276841e+01  3.1949693612329067e+01  2.3244812205345596e+01  2.8097274668009689e+01  1.5293288863324387e+01  1.6361019713177356e+01  1.8067556735854449e+01  1.6336417729716246e+01  1.7734833613293603e+01  2.0341082418835597e+01  1.6576001481541063e+01  2.4216726549896222e+01  1.5870217672031400e+01  1.5257519738011114e+01  1.8083025395146084e+01  1.4419638889675930e+01  1.3752356823065700e+01  2.7210361628270672e+01  1.7355357437062612e+01  1.5783387330738814e+01  2.4783104194789310e+01  4.1562989329026415e+01  2.1652677491095574e+01  2.3435266828462780e+01  2.3933885686741132e+01  2.8293632647242205e+01  1.8364092676447882e+01  1.8196476752520258e+01  1.8899153484224541e+01  1.7225480164037346e+01  2.0097052274313469e+01  2.4661206194408617e+01  1.4935844803864995e+01  1.3992633449809556e+01  2.6072712512618494e+01  1.7831485582600006e+01  1.7101329252069366e+01  1.7098171801389412e+01  1.6873929408216888e+01  1.5590917421688470e+01  1.8368021099389459e+01  1.4650861615014099e+01  2.6743573161435478e+01  1.5258109425846728e+01  2.0882315445542474e+01  1.4909569045149558e+01  1.4423564266058825e+01  1.4376157123780242e+01  2.3734105005168452e+01  2.4639566170740814e+01  1.5563286794787944e+01  2.0628033867424424e+01  1.7274953507122209e+01  3.4855957165340811e+01  2.1198259347760661e+01  1.8270886821640168e+01  1.8281847426153874e+01  2.0601320965050547e+01  2.8415577871452474e+01  2.3950122149983013e+01  1.6103612337743105e+01  1.4225578504954274e+01  3.4872970760535956e+01  1.8867643682091014e+01  2.9333998147522955e+01  2.4123525555714693e+01  2.9563344360156346e+01  1.5456128389866816e+01  1.4573049402376977e+01  1.9392998172272524e+01  1.9987904991385928e+01  1.9394397393552779e+01  1.9972093984973672e+01  1.5823101068016419e+01  1.5824455273276220e+01  1.4719251727591386e+01  1.3922517151526682e+01  1.9972832340708987e+01  1.4730317779390628e+01  1.4573934432423187e+01  4.1968592731974006e+01  4.2360930866386042e+01  2.1821131832173155e+01  2.2154241762360886e+01  1.5245975957417336e+01  1.5582880067527384e+01  2.1425727996236262e+01  1.3964876577234808e+01  1.4135269121388934e+01  1.3478071120659951e+01  2.2095392529964897e+01  2.2894088714942630e+01  1.6096772821030328e+01  1.5396145645707012e+01  1.4282694824704839e+01  1.3648358938566473e+01  1.4092677753998133e+01  1.6266216762487826e+01  1.8951530977102628e+01  1.9816799325394566e+01  1.9219018495545800e+01  1.8085384046896735e+01  1.8156682386234102e+01  1.6865361473011390e+01  1.9911463668651855e+01  2.6597207096644947e+01  1.4880792243186876e+01  1.4215913608646771e+01  2.6864137735351338e+01  4.2738979900217970e+01  3.3353481591116257e+01  1.5399972697810682e+01  1.6384908127008678e+01  2.6138888781120009e+01  2.9325996666265908e+01  1.3803688506901727e+01  2.9305932615534793e+01  1.5303229130848498e+01  1.7600689445820926e+01  1.5726786252245416e+01  1.6299543950959674e+01  1.5734472652764278e+01  1.6793182051836947e+01  2.4391503969708179e+01  1.8015939561630386e+01  2.0395966046752836e+01  4.2993875247828974e+01  1.8794447657050320e+01  1.9137544597226061e+01  1.8050316657704350e+01  1.6548520889159580e+01  1.6130939098822960e+01  2.2309545976874730e+01  1.9713323917835218e+01  2.6063314295546967e+01  1.4687592553336723e+01  1.4221121666204036e+01  1.8433314371517348e+01  1.8714402440375412e+01  4.3286258348245617e+01  1.8182603018132106e+01  1.4092206667418894e+01  2.7199059737521853e+01  2.4224937096170066e+01  1.7607404508407047e+01  1.5453940439771978e+01  2.1375214656219708e+01  2.0608844338327714e+01  3.0900856200496033e+01  1.6701906307076086e+01  1.7033968674563184e+01  2.8777080714035133e+01  3.1199332438166092e+01  3.6576220300803648e+01  3.4531432774514037e+01  3.5795803809787927e+01  2.3231831461227880e+01  1.9099168165722183e+01  2.0757192262284562e+01  2.0006704270560164e+01  2.6791244920830660e+01  1.4988923333391050e+01  1.7577967816392057e+01  1.3478535699049788e+01  2.0594682247859289e+01  3.5408607591484653e+01  2.1950788091478220e+01  2.1962291364568944e+01  2.1180521148375295e+01  2.0794495598778088e+01  1.9415522202319149e+01  1.9151681753363331e+01  1.8608326310213982e+01  4.3694511477221155e+01  1.5198278149262736e+01  2.4163759171945138e+01  1.6415578685412804e+01  3.6198720730868203e+01  3.6784127895906956e+01  3.1223190725181389e+01  1.8166574287095727e+01  2.0269520624640773e+01  1.5884480337780358e+01  1.5772729332917711e+01  2.5880515890607590e+01  2.3664044995365462e+01  3.8292347529877624e+01  2.5896278316695245e+01  2.0829451307712741e+01  1.7063440340335703e+01  1.8415869038447401e+01  1.8188360594661365e+01  1.7234952698598985e+01  1.7494387019940667e+01  1.5527410044955873e+01  2.0177406293514284e+01  1.9558632638677487e+01  2.6972277784581024e+01  2.0177565410618893e+01  2.1631963310760817e+01  2.1859268279923501e+01  2.4646610449825108e+01  2.3078744388190788e+01  2.4838181675849921e+01  2.5118869588643655e+01  1.7609802419941456e+01  1.6859102545788982e+01  2.1528913530879983e+01  2.2702099628844927e+01  3.4599964612908543e+01  1.6606620269773458e+01  2.0413165684604859e+01  2.8305964447984884e+01  1.8707539969096207e+01  1.3966009854072970e+01  4.3589430196716314e+01  1.5775701413455552e+01  1.5587873051759347e+01  1.3650923883405310e+01  1.5888648861455351e+01  2.3710514818581871e+01  2.0401700665211951e+01  2.8270941641225363e+01  1.4830639964504787e+01  1.4378418282069752e+01  1.6606681600128134e+01  1.3651487898715679e+01  1.4832302721548697e+01  2.0002706691881752e+01  2.0385169744484724e+01  1.6941381561942737e+01  2.3186907683060888e+01  2.5154426449992577e+01  2.2258881525519840e+01  1.7937492961166328e+01  1.9081470841006258e+01  1.5562143976533074e+01  2.3333804452449293e+01  3.6582037864125269e+01  1.7534534436360548e+01  2.2010587906869262e+01  2.1464880653900750e+01  2.3846184340720967e+01  2.0677245361073240e+01  2.0201697344972207e+01  1.6504855716192179e+01  1.7269455791354371e+01  1.3776604991847906e+01  3.2315313411183070e+01  1.5375962675713275e+01  1.5753694996859211e+01  1.6122762325831456e+01  2.4872872308669752e+01  1.6779798626713536e+01  2.1669721491835620e+01  1.4329557506741793e+01  2.9835640832355317e+01  2.2976968018657690e+01  1.6139761243469856e+01  1.9599572336706576e+01  2.8051662675486714e+01  2.0018647669948624e+01  1.3922868020264650e+01  1.3908046647194459e+01  1.5903223533652396e+01  2.1064431139107395e+01  2.7845800932114454e+01  1.7996775773299646e+01  1.8565058262360431e+01  1.3746056580993644e+01  1.4511649580230639e+01  1.8983313722590673e+01  2.9572663647467792e+01  1.5699080829418762e+01  1.5351758953887543e+01  1.5535766715463941e+01  1.6008496606061531e+01  1.5780583327180898e+01  1.5793264655360892e+01  4.3974626214730208e+01  4.3816969614057335e+01  1.9360369705531991e+01  2.2024298761701331e+01  1.9507823468865155e+01  2.1050721152055768e+01  1.5415454898211317e+01  1.4822872816648566e+01  1.6879215774950477e+01  1.7170266489005773e+01  1.6235827170812232e+01  2.4166799819606421e+01  1.8714852937463881e+01  1.4355981678833514e+01  1.3681443695682939e+01  1.4727058520769374e+01  1.5111451245865164e+01  3.2797495525863731e+01  2.1724111943016343e+01  2.0456255198622500e+01  1.8555336510142176e+01  2.2432386328389111e+01  3.8817097012976681e+01  2.3907532398350224e+01  1.6169748382009974e+01  1.5828903927787696e+01  2.8005492994859022e+01  1.3586176164156464e+01  1.3502425343830476e+01  1.3795389103103119e+01  1.5951834993296911e+01  1.6093086401068408e+01  1.5609559273917966e+01  1.6852422081089870e+01  2.5287230183993373e+01  1.5201707782285386e+01  1.3585001541002324e+01  1.5186908235022605e+01  1.4715777045562824e+01  1.4776229807281570e+01  3.2768619750333897e+01  2.8792600579191049e+01  1.5787404119652637e+01  1.5971081845095911e+01  1.6661501642992086e+01  1.9310993396798160e+01  1.5089403602357271e+01  1.7269020171974084e+01  1.5137111201919168e+01  3.2178445365443856e+01  1.4407951585251048e+01  3.2313067839051826e+01  1.5779358582452605e+01  1.8014752735743546e+01  3.8351851395006342e+01  2.4442159616696159e+01  1.6720785327156037e+01  1.9709579943813651e+01  1.4776185928768962e+01  1.4669663692088395e+01  2.8475416106298422e+01  3.5504621545215471e+01  3.1745613922430582e+01  3.2672660318016803e+01  1.3794572881256489e+01  1.5262858021460938e+01  2.2779142071654970e+01  1.6605657105167847e+01  1.8963042704751611e+01  1.6777230408326343e+01  1.3741325709289557e+01  1.8599240864167960e+01  2.7648925353649020e+01  1.6867489887736237e+01  1.9201524288728852e+01  2.8530305326809472e+01  1.9671956496111104e+01  1.7464951433281012e+01  1.8827656263279007e+01  1.8201963585544416e+01  2.0386165875382908e+01  2.0115937447689397e+01  1.9656714427678821e+01  1.9155318649782529e+01  1.9940788469753866e+01  2.8843810513652262e+01  2.5457094987216152e+01  3.2605566497990466e+01  1.4580052024106672e+01  2.0665397783389903e+01  2.1538712973420747e+01  1.5012002560193443e+01  2.2257332183748758e+01  3.8887132958403363e+01  1.6160026518549802e+01  1.8105769191385750e+01  3.3926020771939534e+01  2.5359473482339641e+01  1.4823316283377112e+01  1.4682546493465171e+01  1.4214609611051703e+01  1.5743785037347438e+01  1.6203845433512129e+01  1.6786948933181364e+01  1.3555626724353228e+01  1.5571296256307752e+01  2.2206418669385155e+01  1.9550093469569962e+01  2.5981982331307762e+01  1.8222185222296336e+01  1.5753186731695754e+01  1.6979094978387110e+01  1.6344160567914507e+01  2.0694295942145903e+01  1.4077777354837606e+01  2.0519282456865984e+01  1.4540250508569580e+01  3.2310568379703525e+01  2.3340863414228494e+01  2.9735455405960355e+01  1.5116483886069712e+01  1.4044678515194247e+01  3.6944926214450604e+01  1.4221195642115246e+01  2.7143200133344198e+01  3.7999715287593943e+01  4.4728761982905951e+01  3.2885271511144971e+01  1.6366527087736941e+01  1.7398249214936474e+01  1.4805615402823483e+01  1.6347457049042173e+01  2.0777972597160819e+01  1.4347324396564275e+01  1.4003907697327261e+01  1.4087971042188684e+01  1.4200471135207200e+01  2.0366862728148813e+01  2.0774494359784914e+01  1.3633214898717030e+01  1.4852048748856275e+01  2.2330674403880675e+01  3.9799057060160948e+01  3.3031440836883128e+01  3.7433535500299506e+01  1.5095223765461352e+01  2.0074052465940991e+01  4.4965071294450141e+01  4.4454506403821895e+01  2.8240117522404805e+01  2.0032068974217541e+01  2.5574799054821284e+01  2.8485059189205810e+01  1.5144141255542820e+01  1.8257007204134869e+01  1.5437330481639613e+01  1.4858810022165096e+01  4.4793173201776682e+01  1.6311930973596077e+01  1.4940338681951163e+01  1.5485043025319390e+01  1.5104154608319316e+01  2.5037447447165878e+01  1.8645983309699648e+01  1.5833869982385540e+01  3.5696129603838607e+01  2.8598972080180200e+01  2.5984206846733944e+01  1.7013382948880565e+01  2.3270639168479430e+01  1.5203024117441913e+01  2.3997622366658696e+01  2.1159978412070654e+01  1.3465890172552847e+01  1.3501615152349073e+01  2.1060066297976270e+01  1.9298257287568177e+01  1.4354364076943638e+01  1.6594081586300533e+01  2.2980701980105422e+01  1.5986496150177841e+01  1.6186832510414309e+01  2.5140150276249287e+01  2.4886751261738027e+01  1.9469992868979453e+01  1.5161419274654611e+01  1.3557925755299200e+01  1.5828386921996394e+01  2.0844277885441304e+01  1.3990414872089952e+01  3.3349155447266021e+01  4.4582385636916364e+01  1.7169385136630634e+01  1.4141985733663214e+01  4.0266008521100069e+01  1.8896330570623210e+01  3.0634618021597564e+01  4.5103244448295051e+01  2.4271486474322508e+01  3.5088834946023105e+01  1.4509211634345506e+01  1.5635045376822017e+01  2.3684185347324089e+01  1.4201206839185165e+01  1.9882645943188425e+01  2.3041165284279622e+01  1.9036376372435708e+01  1.8500708221869914e+01  1.8140722801720148e+01  1.6204197582538480e+01  1.7621595933850255e+01  2.5602514630963714e+01  2.1121147051424881e+01  1.5952669629418438e+01  2.7522584506720126e+01  3.9109468929968322e+01  2.0342131777948865e+01  4.5742502965547104e+01  1.8681857851182588e+01  2.3588291350964671e+01  2.0340064580185381e+01  2.2757111698346502e+01  2.3315126827057863e+01  2.2778731936516760e+01  2.7150286275342054e+01  1.8736295336582067e+01  3.5233183808900506e+01  3.3185595434099419e+01  1.8374985235546852e+01  1.4074805851438834e+01  1.4616956084841554e+01  1.8186288384102944e+01  1.6923080802273756e+01  2.0030443369551158e+01  1.9290344479523409e+01  1.9859251471396423e+01  2.0172319884119823e+01  2.1492184309628257e+01  2.1551006648380632e+01  3.0426392502203793e+01  1.5112474549658602e+01  1.5615853831460495e+01  2.6542161218447074e+01  2.0177767714911770e+01  2.5524825251038344e+01  1.7955646677094556e+01  1.4752661383175417e+01  2.3154916661060692e+01  2.1707185098200153e+01  1.9856441080315875e+01  1.8584828962075811e+01  3.1317442680257333e+01  1.7336325629089991e+01  2.5686864397562424e+01  3.0739015538329578e+01  2.0066078639892964e+01  1.7320388451595736e+01  1.7056145106522990e+01  1.7137138104118367e+01  3.1567585688637074e+01  1.5854972286378294e+01  1.6432518158164271e+01  1.6928206682847250e+01  2.8506417074950146e+01  4.0194575860746674e+01  1.5357398690719384e+01  3.4584454195522262e+01  1.7446354769375308e+01  1.7532503453056442e+01  1.6822662244426464e+01  2.0730448245055126e+01  1.9207132301713376e+01  1.7463046566578928e+01  1.9405657115096790e+01  2.7257037829006915e+01  1.5540578085227548e+01  1.9965754704788932e+01  1.7456333678343519e+01  2.0282885212030067e+01  1.6259283053734180e+01  2.4689126410687489e+01  2.5228511014630115e+01  1.8123952348322366e+01  2.3712889016369964e+01  2.2100817452223556e+01  1.7737267967046929e+01  1.3743787028265798e+01  1.7453704099151789e+01  1.8211252452523194e+01  2.2773369321470220e+01  1.6008737359599067e+01  1.5967905678117635e+01  1.8449966936144051e+01  1.6295199658930223e+01  1.8002576116987562e+01  1.7645167288790130e+01  2.7590334160965512e+01  1.9408759017260042e+01  1.7378889164243098e+01  1.5990121770223425e+01  2.1124030975207411e+01  2.1002692535723760e+01  1.9720834373821493e+01  1.9617435422280451e+01  1.6911678434119573e+01  1.6863596042630881e+01  1.7828752656544204e+01  1.5818653899588806e+01  2.3870865952980434e+01  2.1273157281915100e+01  2.0358647113240192e+01  1.8063710677201634e+01  1.3867205558213378e+01  3.0144103286037975e+01  1.4468485619140827e+01  3.5187500926406692e+01  1.4504131065652627e+01  1.4436083968301483e+01  2.0775703555004196e+01  1.6775487914812746e+01  2.8783026613128495e+01  1.3899077423493122e+01  2.6365313573627169e+01  1.3965887875722036e+01  1.8074011308043254e+01  2.6181418936964288e+01  1.7220663026188042e+01  1.5484703294531807e+01  1.9509396044457919e+01  1.5802890375257087e+01  1.5403653065261947e